
     Program PWSCF v.6.1 starts on 23Jul2025 at 16:50:12 

     This program is part of the open-source Quantum ESPRESSO suite
     for quantum simulation of materials; please cite
         "P. Giannozzi et al., J. Phys.:Condens. Matter 21 395502 (2009);
          URL http://www.quantum-espresso.org", 
     in publications or presentations arising from this work. More details at
     http://www.quantum-espresso.org/quote

     Parallel version (MPI & OpenMP), running on      16 processor cores
     Number of MPI processes:                 1
     Threads/MPI process:                    16
     Reading input from espresso.in
Warning: card &BANDS ignored
Warning: card     FILBAND        = "ESPRESSO.BAND1" ignored
Warning: card     LSYM           = .FALSE. ignored
Warning: card     OUTDIR         = "./" ignored
Warning: card     PREFIX         = "ESPRESSO" ignored
Warning: card     SPIN_COMPONENT = 1 ignored
Warning: card / ignored

     Current dimensions of program PWSCF are:
     Max number of different atomic species (ntypx) = 10
     Max number of k-points (npk) =  40000
     Max angular momentum in pseudopotentials (lmaxx) =  3
     Message from routine iosys:
     wrong startingpot: use default (2)

     Atomic positions and unit cell read from directory:
     ./espresso.save/

               file Mg.pbe-spnl-rrkjus_psl.1.0.0.UPF: wavefunction(s)  2P renormalized

     Subspace diagonalization in iterative solution of the eigenvalue problem:
     a serial algorithm will be used


     G-vector sticks info
     --------------------
     sticks:   dense  smooth     PW     G-vecs:    dense   smooth      PW
     Sum        1201     535    163                38857    11559    1991



     bravais-lattice index     =            4
     lattice parameter (alat)  =       5.7878  a.u.
     unit-cell volume          =     193.0204 (a.u.)^3
     number of atoms/cell      =            3
     number of atomic types    =            2
     number of electrons       =        16.00
     number of Kohn-Sham states=           16
     kinetic-energy cutoff     =      58.1209  Ry
     charge density cutoff     =     523.0880  Ry
     Exchange-correlation      =  SLA  PW   PBE  PBE ( 1  4  3  4 0 0)

     celldm(1)=   5.787778  celldm(2)=   0.000000  celldm(3)=   1.149574
     celldm(4)=   0.000000  celldm(5)=   0.000000  celldm(6)=   0.000000

     crystal axes: (cart. coord. in units of alat)
               a(1) = (   1.000000   0.000000   0.000000 )  
               a(2) = (  -0.500000   0.866025   0.000000 )  
               a(3) = (   0.000000   0.000000   1.149574 )  

     reciprocal axes: (cart. coord. in units 2 pi/alat)
               b(1) = (  1.000000  0.577350 -0.000000 )  
               b(2) = (  0.000000  1.154701  0.000000 )  
               b(3) = (  0.000000 -0.000000  0.869887 )  


     PseudoPot. # 1 for Mg read from file:
     C:\Users\Asus\.burai\.pseudopot/Mg.pbe-spnl-rrkjus_psl.1.0.0.UPF
     MD5 check sum: 0ab0d416659e2fce2913fe971dd7efd8
     Pseudo is Ultrasoft + core correction, Zval = 10.0
     Generated using "atomic" code by A. Dal Corso  v.5.1.2
     Using radial grid of 1129 points,  4 beta functions with: 
                l(1) =   0
                l(2) =   0
                l(3) =   1
                l(4) =   1
     Q(r) pseudized with 0 coefficients 


     PseudoPot. # 2 for B  read from file:
     C:\Users\Asus\.burai\.pseudopot/B.pbe-n-van_ak.UPF
     MD5 check sum: 74a54272a41b34c331ae15c1e983f7ee
     Pseudo is Ultrasoft + core correction, Zval =  3.0
     Generated by new atomic code, or converted to UPF format
     Using radial grid of  781 points,  4 beta functions with: 
                l(1) =   0
                l(2) =   0
                l(3) =   1
                l(4) =   1
     Q(r) pseudized with  8 coefficients,  rinner =    1.100   1.100   1.100


     atomic species   valence    mass     pseudopotential
        Mg            10.00    24.30500     Mg( 1.00)
        B-             3.00    10.81100     B ( 1.00)

     24 Sym. Ops., with inversion, found



   Cartesian axes

     site n.     atom                  positions (alat units)
         1           Mg  tau(   1) = (   0.0000000   0.0000000   0.0000000  )
         2           B-  tau(   2) = (   0.5000003   0.2886752   0.5747871  )
         3           B-  tau(   3) = (  -0.0000000   0.5773508   0.5747871  )

     number of k points=   183  Methfessel-Paxton smearing, width (Ry)=  0.0100

     Number of k-points >= 100: set verbosity='high' to print them.

     Dense  grid:    38857 G-vectors     FFT dimensions: (  45,  45,  50)

     Smooth grid:    11559 G-vectors     FFT dimensions: (  30,  30,  36)

     Estimated max dynamical RAM per process >      15.88MB

     Check: negative/imaginary core charge=   -0.000005    0.000000

     The potential is recalculated from file :
     ./espresso.save/charge-density.dat

     Starting wfc are   13 randomized atomic wfcs +    3 random wfc

     Band Structure Calculation
     Davidson diagonalization with overlap

     ethr =  6.25E-09,  avg # of iterations = 16.5

     total cpu time spent up to now is      184.3 secs

     End of band structure calculation

     Number of k-points >= 100: set verbosity='high' to print the bands.

     Writing output data file espresso.save

     init_run     :      1.12s CPU      1.20s WALL (       1 calls)
     electrons    :     99.75s CPU    182.16s WALL (       1 calls)

     Called by init_run:
     wfcinit      :      0.00s CPU      0.01s WALL (       1 calls)
     potinit      :      0.06s CPU      0.11s WALL (       1 calls)

     Called by electrons:
     c_bands      :     99.75s CPU    182.16s WALL (       1 calls)
     v_of_rho     :      0.05s CPU      0.07s WALL (       1 calls)
     newd         :      0.06s CPU      0.07s WALL (       1 calls)

     Called by c_bands:
     init_us_2    :      0.20s CPU      0.37s WALL (     183 calls)
     cegterg      :     92.80s CPU    171.91s WALL (     206 calls)

     Called by sum_band:

     Called by *egterg:
     h_psi        :     63.45s CPU     71.68s WALL (    3413 calls)
     s_psi        :      0.69s CPU      1.55s WALL (    3413 calls)
     g_psi        :      0.17s CPU      0.47s WALL (    3024 calls)
     cdiaghg      :     30.67s CPU     96.82s WALL (    3207 calls)

     Called by h_psi:
     h_psi:pot    :     63.28s CPU     71.36s WALL (    3413 calls)
     h_psi:calbec :      0.14s CPU      1.28s WALL (    3413 calls)
     vloc_psi     :     62.67s CPU     68.38s WALL (    3413 calls)
     add_vuspsi   :      0.45s CPU      1.66s WALL (    3413 calls)

     General routines
     calbec       :      0.14s CPU      1.27s WALL (    3413 calls)
     fft          :      0.02s CPU      0.03s WALL (      13 calls)
     ffts         :      0.00s CPU      0.01s WALL (       1 calls)
     fftw         :     54.55s CPU     53.67s WALL (   59508 calls)
     interpolate  :      0.00s CPU      0.01s WALL (       1 calls)
     davcio       :      0.09s CPU      0.23s WALL (     366 calls)

     Parallel routines
     fft_scatter  :      0.03s CPU      1.62s WALL (   59522 calls)

     PWSCF        :  1m41.95s CPU     3m 5.85s WALL


   This run was terminated on:  16:53:18  23Jul2025            

=------------------------------------------------------------------------------=
   JOB DONE.
=------------------------------------------------------------------------------=
