
     Program PROJWFC v.6.1 starts on 22Jul2025 at 22: 2:42 

     This program is part of the open-source Quantum ESPRESSO suite
     for quantum simulation of materials; please cite
         "P. Giannozzi et al., J. Phys.:Condens. Matter 21 395502 (2009);
          URL http://www.quantum-espresso.org", 
     in publications or presentations arising from this work. More details at
     http://www.quantum-espresso.org/quote

     Parallel version (MPI & OpenMP), running on      16 processor cores
     Number of MPI processes:                 1
     Threads/MPI process:                    16

     Reading data from directory:
     ./espresso.save

   Info: using nr1, nr2, nr3 values from input

   Info: using nr1, nr2, nr3 values from input

     IMPORTANT: XC functional enforced from input :
     Exchange-correlation      =  SLA  PW   PBE  PBE ( 1  4  3  4 0 0)
     Any further DFT definition will be discarded
     Please, verify this is what you really want

               file Mg.pbe-spnl-rrkjus_psl.1.0.0.UPF: wavefunction(s)  2P renormalized

     G-vector sticks info
     --------------------
     sticks:   dense  smooth     PW     G-vecs:    dense   smooth      PW
     Sum        1201     535    163                38857    11559    1991


     Check: negative/imaginary core charge=   -0.000005    0.000000

     Gaussian broadening (read from input): ngauss,degauss=   1    0.010000


     Calling projwave .... 

     Atomic states used for projection
     (read from pseudopotential files):

     state #   1: atom   1 (Mg ), wfc  1 (l=0 m= 1)
     state #   2: atom   1 (Mg ), wfc  2 (l=0 m= 1)
     state #   3: atom   1 (Mg ), wfc  3 (l=1 m= 1)
     state #   4: atom   1 (Mg ), wfc  3 (l=1 m= 2)
     state #   5: atom   1 (Mg ), wfc  3 (l=1 m= 3)
     state #   6: atom   2 (B- ), wfc  1 (l=0 m= 1)
     state #   7: atom   2 (B- ), wfc  2 (l=1 m= 1)
     state #   8: atom   2 (B- ), wfc  2 (l=1 m= 2)
     state #   9: atom   2 (B- ), wfc  2 (l=1 m= 3)
     state #  10: atom   3 (B- ), wfc  1 (l=0 m= 1)
     state #  11: atom   3 (B- ), wfc  2 (l=1 m= 1)
     state #  12: atom   3 (B- ), wfc  2 (l=1 m= 2)
     state #  13: atom   3 (B- ), wfc  2 (l=1 m= 3)

 k =   0.0000000000  0.0000000000  0.0000000000
==== e(   1) =   -65.98164 eV ==== 
     psi = 0.973*[#   1]+0.016*[#   2]+0.006*[#   6]+0.006*[#  10]+
    |psi|^2 = 1.000
==== e(   2) =   -32.72446 eV ==== 
     psi = 0.500*[#   4]+0.500*[#   5]+
    |psi|^2 = 1.000
==== e(   3) =   -32.72446 eV ==== 
     psi = 0.500*[#   4]+0.500*[#   5]+
    |psi|^2 = 1.000
==== e(   4) =   -32.71307 eV ==== 
     psi = 0.993*[#   3]+0.003*[#   7]+0.003*[#  11]+
    |psi|^2 = 1.000
==== e(   5) =    -3.34189 eV ==== 
     psi = 0.413*[#   2]+0.279*[#   6]+0.279*[#  10]+0.027*[#   1]+
    |psi|^2 = 0.999
==== e(   6) =     6.13825 eV ==== 
     psi = 0.493*[#   7]+0.493*[#  11]+0.007*[#   3]+
    |psi|^2 = 0.992
==== e(   7) =     9.53835 eV ==== 
     psi = 0.248*[#   8]+0.248*[#   9]+0.248*[#  12]+0.248*[#  13]+
    |psi|^2 = 0.992
==== e(   8) =     9.53838 eV ==== 
     psi = 0.248*[#   8]+0.248*[#   9]+0.248*[#  12]+0.248*[#  13]+
    |psi|^2 = 0.992
==== e(   9) =    10.75512 eV ==== 
     psi = 0.492*[#   2]+0.184*[#   6]+0.184*[#  10]+
    |psi|^2 = 0.861
==== e(  10) =    15.58187 eV ==== 
     psi = 0.220*[#   8]+0.220*[#   9]+0.220*[#  12]+0.220*[#  13]+
    |psi|^2 = 0.879
==== e(  11) =    15.58190 eV ==== 
     psi = 0.220*[#   8]+0.220*[#   9]+0.220*[#  12]+0.220*[#  13]+
    |psi|^2 = 0.879
==== e(  12) =    17.50790 eV ==== 
     psi = 0.446*[#   6]+0.446*[#  10]+
    |psi|^2 = 0.892
==== e(  13) =    19.26890 eV ==== 
     psi = 0.495*[#   7]+0.495*[#  11]+
    |psi|^2 = 0.991
==== e(  14) =    22.07460 eV ==== 
     psi = 0.077*[#   2]+0.030*[#   6]+0.030*[#  10]+
    |psi|^2 = 0.137
==== e(  15) =    25.42218 eV ==== 
     psi = 0.001*[#   8]+0.001*[#   9]+0.001*[#  12]+0.001*[#  13]+
    |psi|^2 = 0.006
==== e(  16) =    25.42219 eV ==== 
     psi = 0.001*[#   8]+0.001*[#   9]+0.001*[#  12]+0.001*[#  13]+
    |psi|^2 = 0.006

 k =   0.0000000000  0.0000000000  0.0362453030
==== e(   1) =   -65.98166 eV ==== 
     psi = 0.972*[#   1]+0.015*[#   2]+0.006*[#   6]+0.006*[#  10]+
    |psi|^2 = 1.000
==== e(   2) =   -32.72448 eV ==== 
     psi = 0.500*[#   4]+0.500*[#   5]+
    |psi|^2 = 1.000
==== e(   3) =   -32.72448 eV ==== 
     psi = 0.500*[#   4]+0.500*[#   5]+
    |psi|^2 = 1.000
==== e(   4) =   -32.71324 eV ==== 
     psi = 0.993*[#   3]+0.003*[#   7]+0.003*[#  11]+
    |psi|^2 = 1.000
==== e(   5) =    -3.32680 eV ==== 
     psi = 0.409*[#   2]+0.281*[#   6]+0.281*[#  10]+0.026*[#   1]+
    |psi|^2 = 0.999
==== e(   6) =     6.00515 eV ==== 
     psi = 0.479*[#   7]+0.479*[#  11]+0.009*[#   6]+0.009*[#  10]+0.008*[#   2]+
          +0.007*[#   3]+0.001*[#   1]+
    |psi|^2 = 0.991
==== e(   7) =     9.54411 eV ==== 
     psi = 0.248*[#   8]+0.248*[#   9]+0.248*[#  12]+0.248*[#  13]+
    |psi|^2 = 0.992
==== e(   8) =     9.54414 eV ==== 
     psi = 0.248*[#   8]+0.248*[#   9]+0.248*[#  12]+0.248*[#  13]+
    |psi|^2 = 0.992
==== e(   9) =    10.92341 eV ==== 
     psi = 0.488*[#   2]+0.174*[#   6]+0.174*[#  10]+0.011*[#   7]+0.011*[#  11]+
    |psi|^2 = 0.860
==== e(  10) =    15.58660 eV ==== 
     psi = 0.220*[#   8]+0.220*[#   9]+0.220*[#  12]+0.220*[#  13]+
    |psi|^2 = 0.879
==== e(  11) =    15.58664 eV ==== 
     psi = 0.220*[#   8]+0.220*[#   9]+0.220*[#  12]+0.220*[#  13]+
    |psi|^2 = 0.879
==== e(  12) =    17.50370 eV ==== 
     psi = 0.436*[#   6]+0.436*[#  10]+0.010*[#   7]+0.010*[#  11]+
    |psi|^2 = 0.892
==== e(  13) =    19.26978 eV ==== 
     psi = 0.485*[#   7]+0.485*[#  11]+0.010*[#   6]+0.010*[#  10]+
    |psi|^2 = 0.990
==== e(  14) =    22.08905 eV ==== 
     psi = 0.078*[#   2]+0.030*[#   6]+0.030*[#  10]+
    |psi|^2 = 0.138
==== e(  15) =    25.25466 eV ==== 
     psi = 0.001*[#   8]+0.001*[#   9]+0.001*[#  12]+0.001*[#  13]+
    |psi|^2 = 0.005
==== e(  16) =    25.25467 eV ==== 
     psi = 0.001*[#   8]+0.001*[#   9]+0.001*[#  12]+0.001*[#  13]+
    |psi|^2 = 0.005

 k =   0.0000000000  0.0000000000  0.0724906060
==== e(   1) =   -65.98164 eV ==== 
     psi = 0.969*[#   1]+0.013*[#   2]+0.005*[#   6]+0.005*[#  10]+0.003*[#   7]+
          +0.003*[#  11]+
    |psi|^2 = 1.000
==== e(   2) =   -32.72444 eV ==== 
     psi = 0.500*[#   4]+0.500*[#   5]+
    |psi|^2 = 1.000
==== e(   3) =   -32.72444 eV ==== 
     psi = 0.500*[#   4]+0.500*[#   5]+
    |psi|^2 = 1.000
==== e(   4) =   -32.71357 eV ==== 
     psi = 0.993*[#   3]+0.003*[#   7]+0.003*[#  11]+
    |psi|^2 = 1.000
==== e(   5) =    -3.28176 eV ==== 
     psi = 0.398*[#   2]+0.285*[#   6]+0.285*[#  10]+0.026*[#   1]+0.003*[#   7]+
          +0.003*[#  11]+
    |psi|^2 = 0.999
==== e(   6) =     5.65431 eV ==== 
     psi = 0.451*[#   7]+0.451*[#  11]+0.027*[#   6]+0.027*[#  10]+0.023*[#   2]+
          +0.006*[#   3]+0.005*[#   1]+
    |psi|^2 = 0.990
==== e(   7) =     9.56113 eV ==== 
     psi = 0.248*[#   8]+0.248*[#   9]+0.248*[#  12]+0.248*[#  13]+
    |psi|^2 = 0.993
==== e(   8) =     9.56116 eV ==== 
     psi = 0.248*[#   8]+0.248*[#   9]+0.248*[#  12]+0.248*[#  13]+
    |psi|^2 = 0.993
==== e(   9) =    11.38006 eV ==== 
     psi = 0.481*[#   2]+0.152*[#   6]+0.152*[#  10]+0.035*[#   7]+0.035*[#  11]+
    |psi|^2 = 0.855
==== e(  10) =    15.60086 eV ==== 
     psi = 0.220*[#   8]+0.220*[#   9]+0.220*[#  12]+0.220*[#  13]+
    |psi|^2 = 0.880
==== e(  11) =    15.60090 eV ==== 
     psi = 0.220*[#   8]+0.220*[#   9]+0.220*[#  12]+0.220*[#  13]+
    |psi|^2 = 0.880
==== e(  12) =    17.49144 eV ==== 
     psi = 0.409*[#   6]+0.409*[#  10]+0.039*[#   7]+0.039*[#  11]+
    |psi|^2 = 0.895
==== e(  13) =    19.27234 eV ==== 
     psi = 0.454*[#   7]+0.454*[#  11]+0.041*[#   6]+0.041*[#  10]+
    |psi|^2 = 0.990
==== e(  14) =    22.13216 eV ==== 
     psi = 0.081*[#   2]+0.029*[#   6]+0.029*[#  10]+0.001*[#   7]+0.001*[#  11]+
    |psi|^2 = 0.140
==== e(  15) =    24.84070 eV ==== 
     psi = 0.001*[#   8]+0.001*[#   9]+0.001*[#  12]+0.001*[#  13]+
    |psi|^2 = 0.005
==== e(  16) =    24.84071 eV ==== 
     psi = 0.001*[#   8]+0.001*[#   9]+0.001*[#  12]+0.001*[#  13]+
    |psi|^2 = 0.005

 k =   0.0000000000  0.0000000000  0.1087359090
==== e(   1) =   -65.98162 eV ==== 
     psi = 0.966*[#   1]+0.011*[#   2]+0.007*[#   7]+0.007*[#  11]+0.005*[#   6]+
          +0.005*[#  10]+
    |psi|^2 = 1.000
==== e(   2) =   -32.72440 eV ==== 
     psi = 0.500*[#   4]+0.500*[#   5]+
    |psi|^2 = 1.000
==== e(   3) =   -32.72440 eV ==== 
     psi = 0.500*[#   4]+0.500*[#   5]+
    |psi|^2 = 1.000
==== e(   4) =   -32.71416 eV ==== 
     psi = 0.993*[#   3]+0.003*[#   7]+0.003*[#  11]+
    |psi|^2 = 1.000
==== e(   5) =    -3.20769 eV ==== 
     psi = 0.379*[#   2]+0.292*[#   6]+0.292*[#  10]+0.024*[#   1]+0.006*[#   7]+
          +0.006*[#  11]+
    |psi|^2 = 0.999
==== e(   6) =     5.17672 eV ==== 
     psi = 0.422*[#   7]+0.422*[#  11]+0.047*[#   6]+0.047*[#  10]+0.038*[#   2]+
          +0.010*[#   1]+0.005*[#   3]+
    |psi|^2 = 0.990
==== e(   7) =     9.58846 eV ==== 
     psi = 0.248*[#   8]+0.248*[#   9]+0.248*[#  12]+0.248*[#  13]+
    |psi|^2 = 0.993
==== e(   8) =     9.58849 eV ==== 
     psi = 0.248*[#   8]+0.248*[#   9]+0.248*[#  12]+0.248*[#  13]+
    |psi|^2 = 0.993
==== e(   9) =    12.03367 eV ==== 
     psi = 0.480*[#   2]+0.128*[#   6]+0.128*[#  10]+0.055*[#   7]+0.055*[#  11]+
    |psi|^2 = 0.847
==== e(  10) =    15.62382 eV ==== 
     psi = 0.220*[#   8]+0.220*[#   9]+0.220*[#  12]+0.220*[#  13]+
    |psi|^2 = 0.881
==== e(  11) =    15.62385 eV ==== 
     psi = 0.220*[#   8]+0.220*[#   9]+0.220*[#  12]+0.220*[#  13]+
    |psi|^2 = 0.881
==== e(  12) =    17.47210 eV ==== 
     psi = 0.366*[#   6]+0.366*[#  10]+0.083*[#   7]+0.083*[#  11]+
    |psi|^2 = 0.899
==== e(  13) =    19.27632 eV ==== 
     psi = 0.407*[#   7]+0.407*[#  11]+0.087*[#   6]+0.087*[#  10]+
    |psi|^2 = 0.989
==== e(  14) =    22.20265 eV ==== 
     psi = 0.085*[#   2]+0.027*[#   6]+0.027*[#  10]+0.002*[#   7]+0.002*[#  11]+
    |psi|^2 = 0.143
==== e(  15) =    24.31935 eV ==== 
     psi = 0.001*[#   8]+0.001*[#   9]+0.001*[#  12]+0.001*[#  13]+
    |psi|^2 = 0.004
==== e(  16) =    24.31936 eV ==== 
     psi = 0.001*[#   8]+0.001*[#   9]+0.001*[#  12]+0.001*[#  13]+
    |psi|^2 = 0.004

 k =   0.0000000000  0.0000000000  0.1449812120
==== e(   1) =   -65.98159 eV ==== 
     psi = 0.960*[#   1]+0.012*[#   7]+0.012*[#  11]+0.007*[#   2]+0.005*[#   6]+
          +0.005*[#  10]+
    |psi|^2 = 1.000
==== e(   2) =   -32.72435 eV ==== 
     psi = 0.500*[#   4]+0.500*[#   5]+
    |psi|^2 = 1.000
==== e(   3) =   -32.72435 eV ==== 
     psi = 0.500*[#   4]+0.500*[#   5]+
    |psi|^2 = 1.000
==== e(   4) =   -32.71495 eV ==== 
     psi = 0.993*[#   3]+0.002*[#   7]+0.002*[#  11]+
    |psi|^2 = 1.000
==== e(   5) =    -3.10617 eV ==== 
     psi = 0.352*[#   2]+0.302*[#   6]+0.302*[#  10]+0.022*[#   1]+0.009*[#   7]+
          +0.009*[#  11]+0.001*[#   3]+
    |psi|^2 = 0.999
==== e(   6) =     4.64350 eV ==== 
     psi = 0.398*[#   7]+0.398*[#  11]+0.062*[#   6]+0.062*[#  10]+0.052*[#   2]+
          +0.016*[#   1]+0.005*[#   3]+
    |psi|^2 = 0.991
==== e(   7) =     9.62457 eV ==== 
     psi = 0.248*[#   8]+0.248*[#   9]+0.248*[#  12]+0.248*[#  13]+
    |psi|^2 = 0.993
==== e(   8) =     9.62460 eV ==== 
     psi = 0.248*[#   8]+0.248*[#   9]+0.248*[#  12]+0.248*[#  13]+
    |psi|^2 = 0.993
==== e(   9) =    12.81266 eV ==== 
     psi = 0.486*[#   2]+0.104*[#   6]+0.104*[#  10]+0.069*[#   7]+0.069*[#  11]+
          +0.002*[#   1]+
    |psi|^2 = 0.834
==== e(  10) =    15.65425 eV ==== 
     psi = 0.221*[#   8]+0.221*[#   9]+0.221*[#  12]+0.221*[#  13]+
    |psi|^2 = 0.883
==== e(  11) =    15.65429 eV ==== 
     psi = 0.221*[#   8]+0.221*[#   9]+0.221*[#  12]+0.221*[#  13]+
    |psi|^2 = 0.883
==== e(  12) =    17.44717 eV ==== 
     psi = 0.313*[#   6]+0.313*[#  10]+0.139*[#   7]+0.139*[#  11]+
    |psi|^2 = 0.904
==== e(  13) =    19.28134 eV ==== 
     psi = 0.349*[#   7]+0.349*[#  11]+0.145*[#   6]+0.145*[#  10]+
    |psi|^2 = 0.988
==== e(  14) =    22.29865 eV ==== 
     psi = 0.090*[#   2]+0.024*[#   6]+0.024*[#  10]+0.004*[#   7]+0.004*[#  11]+
    |psi|^2 = 0.146
==== e(  15) =    23.77569 eV ==== 
     psi = 
    |psi|^2 = 0.004
==== e(  16) =    23.77570 eV ==== 
     psi = 
    |psi|^2 = 0.004

 k =   0.0000000000  0.0000000000  0.1812265150
==== e(   1) =   -65.98155 eV ==== 
     psi = 0.953*[#   1]+0.017*[#   7]+0.017*[#  11]+0.004*[#   2]+0.004*[#   6]+
          +0.004*[#  10]+
    |psi|^2 = 1.000
==== e(   2) =   -32.72427 eV ==== 
     psi = 0.500*[#   4]+0.500*[#   5]+
    |psi|^2 = 1.000
==== e(   3) =   -32.72427 eV ==== 
     psi = 0.500*[#   4]+0.500*[#   5]+
    |psi|^2 = 1.000
==== e(   4) =   -32.71586 eV ==== 
     psi = 0.993*[#   3]+0.002*[#   7]+0.002*[#  11]+0.001*[#   6]+0.001*[#  10]+
    |psi|^2 = 1.000
==== e(   5) =    -2.97972 eV ==== 
     psi = 0.318*[#   2]+0.317*[#   6]+0.317*[#  10]+0.020*[#   1]+0.013*[#   7]+
          +0.013*[#  11]+0.002*[#   3]+
    |psi|^2 = 0.999
==== e(   6) =     4.09786 eV ==== 
     psi = 0.380*[#   7]+0.380*[#  11]+0.071*[#   6]+0.071*[#  10]+0.065*[#   2]+
          +0.022*[#   1]+0.004*[#   3]+
    |psi|^2 = 0.992
==== e(   7) =     9.66735 eV ==== 
     psi = 0.248*[#   8]+0.248*[#   9]+0.248*[#  12]+0.248*[#  13]+
    |psi|^2 = 0.994
==== e(   8) =     9.66738 eV ==== 
     psi = 0.248*[#   8]+0.248*[#   9]+0.248*[#  12]+0.248*[#  13]+
    |psi|^2 = 0.994
==== e(   9) =    13.67281 eV ==== 
     psi = 0.496*[#   2]+0.083*[#   6]+0.083*[#  10]+0.076*[#   7]+0.076*[#  11]+
          +0.004*[#   1]+
    |psi|^2 = 0.819
==== e(  10) =    15.69047 eV ==== 
     psi = 0.221*[#   8]+0.221*[#   9]+0.221*[#  12]+0.221*[#  13]+
    |psi|^2 = 0.885
==== e(  11) =    15.69051 eV ==== 
     psi = 0.221*[#   8]+0.221*[#   9]+0.221*[#  12]+0.221*[#  13]+
    |psi|^2 = 0.885
==== e(  12) =    17.41855 eV ==== 
     psi = 0.255*[#   6]+0.255*[#  10]+0.200*[#   7]+0.200*[#  11]+
    |psi|^2 = 0.909
==== e(  13) =    19.28696 eV ==== 
     psi = 0.284*[#   7]+0.284*[#  11]+0.209*[#   6]+0.209*[#  10]+
    |psi|^2 = 0.986
==== e(  14) =    22.41721 eV ==== 
     psi = 0.094*[#   2]+0.021*[#   6]+0.021*[#  10]+0.005*[#   7]+0.005*[#  11]+
    |psi|^2 = 0.146
==== e(  15) =    23.25228 eV ==== 
     psi = 
    |psi|^2 = 0.003
==== e(  16) =    23.25229 eV ==== 
     psi = 
    |psi|^2 = 0.003

 k =   0.0000000000  0.0000000000  0.2174718180
==== e(   1) =   -65.98149 eV ==== 
     psi = 0.946*[#   1]+0.023*[#   7]+0.023*[#  11]+0.003*[#   6]+0.003*[#  10]+
          +0.002*[#   2]+
    |psi|^2 = 1.000
==== e(   2) =   -32.72417 eV ==== 
     psi = 0.500*[#   4]+0.500*[#   5]+
    |psi|^2 = 1.000
==== e(   3) =   -32.72416 eV ==== 
     psi = 0.500*[#   4]+0.500*[#   5]+
    |psi|^2 = 1.000
==== e(   4) =   -32.71684 eV ==== 
     psi = 0.993*[#   3]+0.001*[#   6]+0.002*[#   7]+0.001*[#  10]+0.002*[#  11]+
    |psi|^2 = 1.000
==== e(   5) =    -2.83216 eV ==== 
     psi = 0.336*[#   6]+0.336*[#  10]+0.276*[#   2]+0.017*[#   1]+0.015*[#   7]+
          +0.015*[#  11]+0.002*[#   3]+
    |psi|^2 = 0.999
==== e(   6) =     3.56608 eV ==== 
     psi = 0.366*[#   7]+0.366*[#  11]+0.081*[#   2]+0.075*[#   6]+0.075*[#  10]+
          +0.028*[#   1]+0.004*[#   3]+
    |psi|^2 = 0.994
==== e(   7) =     9.71419 eV ==== 
     psi = 0.249*[#   8]+0.249*[#   9]+0.249*[#  12]+0.249*[#  13]+
    |psi|^2 = 0.994
==== e(   8) =     9.71422 eV ==== 
     psi = 0.249*[#   8]+0.249*[#   9]+0.249*[#  12]+0.249*[#  13]+
    |psi|^2 = 0.994
==== e(   9) =    14.58591 eV ==== 
     psi = 0.509*[#   2]+0.079*[#   7]+0.079*[#  11]+0.064*[#   6]+0.064*[#  10]+
          +0.007*[#   1]+
    |psi|^2 = 0.803
==== e(  10) =    15.73033 eV ==== 
     psi = 0.222*[#   8]+0.222*[#   9]+0.222*[#  12]+0.222*[#  13]+
    |psi|^2 = 0.887
==== e(  11) =    15.73036 eV ==== 
     psi = 0.222*[#   8]+0.222*[#   9]+0.222*[#  12]+0.222*[#  13]+
    |psi|^2 = 0.887
==== e(  12) =    17.38827 eV ==== 
     psi = 0.262*[#   7]+0.262*[#  11]+0.196*[#   6]+0.196*[#  10]+
    |psi|^2 = 0.916
==== e(  13) =    19.29275 eV ==== 
     psi = 0.273*[#   6]+0.273*[#  10]+0.219*[#   7]+0.219*[#  11]+
    |psi|^2 = 0.985
==== e(  14) =    22.55400 eV ==== 
     psi = 0.096*[#   2]+0.017*[#   6]+0.017*[#  10]+0.006*[#   7]+0.006*[#  11]+
    |psi|^2 = 0.142
==== e(  15) =    22.77161 eV ==== 
     psi = 
    |psi|^2 = 0.003
==== e(  16) =    22.77162 eV ==== 
     psi = 
    |psi|^2 = 0.003

 k =   0.0000000000  0.0000000000  0.2537171211
==== e(   1) =   -65.98145 eV ==== 
     psi = 0.938*[#   1]+0.028*[#   7]+0.028*[#  11]+0.003*[#   6]+0.003*[#  10]+
    |psi|^2 = 1.000
==== e(   2) =   -32.72409 eV ==== 
     psi = 0.500*[#   4]+0.500*[#   5]+
    |psi|^2 = 1.000
==== e(   3) =   -32.72409 eV ==== 
     psi = 0.500*[#   4]+0.500*[#   5]+
    |psi|^2 = 1.000
==== e(   4) =   -32.71779 eV ==== 
     psi = 0.993*[#   3]+0.002*[#   6]+0.002*[#  10]+0.001*[#   7]+0.001*[#  11]+
    |psi|^2 = 1.000
==== e(   5) =    -2.66923 eV ==== 
     psi = 0.361*[#   6]+0.361*[#  10]+0.227*[#   2]+0.016*[#   7]+0.016*[#  11]+
          +0.014*[#   1]+0.003*[#   3]+
    |psi|^2 = 0.999
==== e(   6) =     3.06649 eV ==== 
     psi = 0.356*[#   7]+0.356*[#  11]+0.103*[#   2]+0.072*[#   6]+0.072*[#  10]+
          +0.035*[#   1]+0.003*[#   3]+
    |psi|^2 = 0.995
==== e(   7) =     9.76201 eV ==== 
     psi = 0.249*[#   8]+0.249*[#   9]+0.249*[#  12]+0.249*[#  13]+
    |psi|^2 = 0.995
==== e(   8) =     9.76205 eV ==== 
     psi = 0.249*[#   8]+0.249*[#   9]+0.249*[#  12]+0.249*[#  13]+
    |psi|^2 = 0.995
==== e(   9) =    15.52951 eV ==== 
     psi = 0.523*[#   2]+0.080*[#   7]+0.080*[#  11]+0.047*[#   6]+0.047*[#  10]+
          +0.011*[#   1]+
    |psi|^2 = 0.788
==== e(  10) =    15.77120 eV ==== 
     psi = 0.222*[#   8]+0.222*[#   9]+0.222*[#  12]+0.222*[#  13]+
    |psi|^2 = 0.890
==== e(  11) =    15.77124 eV ==== 
     psi = 0.222*[#   8]+0.222*[#   9]+0.222*[#  12]+0.222*[#  13]+
    |psi|^2 = 0.890
==== e(  12) =    17.35845 eV ==== 
     psi = 0.320*[#   7]+0.320*[#  11]+0.141*[#   6]+0.141*[#  10]+
    |psi|^2 = 0.922
==== e(  13) =    19.29830 eV ==== 
     psi = 0.334*[#   6]+0.334*[#  10]+0.158*[#   7]+0.158*[#  11]+
    |psi|^2 = 0.983
==== e(  14) =    22.34716 eV ==== 
     psi = 
    |psi|^2 = 0.002
==== e(  15) =    22.34716 eV ==== 
     psi = 
    |psi|^2 = 0.002
==== e(  16) =    22.70342 eV ==== 
     psi = 0.092*[#   2]+0.012*[#   6]+0.012*[#  10]+0.007*[#   7]+0.007*[#  11]+
          +0.001*[#   1]+
    |psi|^2 = 0.131

 k =   0.0000000000  0.0000000000  0.2899624241
==== e(   1) =   -65.98139 eV ==== 
     psi = 0.930*[#   1]+0.033*[#   7]+0.033*[#  11]+0.002*[#   6]+0.002*[#  10]+
    |psi|^2 = 1.000
==== e(   2) =   -32.72397 eV ==== 
     psi = 0.500*[#   4]+0.500*[#   5]+
    |psi|^2 = 1.000
==== e(   3) =   -32.72397 eV ==== 
     psi = 0.500*[#   4]+0.500*[#   5]+
    |psi|^2 = 1.000
==== e(   4) =   -32.71866 eV ==== 
     psi = 0.993*[#   3]+0.002*[#   6]+0.002*[#  10]+
    |psi|^2 = 1.000
==== e(   5) =    -2.49942 eV ==== 
     psi = 0.391*[#   6]+0.391*[#  10]+0.172*[#   2]+0.015*[#   7]+0.015*[#  11]+
          +0.011*[#   1]+0.004*[#   3]+
    |psi|^2 = 0.999
==== e(   6) =     2.61496 eV ==== 
     psi = 0.350*[#   7]+0.350*[#  11]+0.131*[#   2]+0.061*[#   6]+0.061*[#  10]+
          +0.041*[#   1]+0.002*[#   3]+
    |psi|^2 = 0.996
==== e(   7) =     9.80752 eV ==== 
     psi = 0.249*[#   8]+0.249*[#   9]+0.249*[#  12]+0.249*[#  13]+
    |psi|^2 = 0.996
==== e(   8) =     9.80756 eV ==== 
     psi = 0.249*[#   8]+0.249*[#   9]+0.249*[#  12]+0.249*[#  13]+
    |psi|^2 = 0.996
==== e(   9) =    15.81032 eV ==== 
     psi = 0.223*[#   8]+0.223*[#   9]+0.223*[#  12]+0.223*[#  13]+
    |psi|^2 = 0.892
==== e(  10) =    15.81036 eV ==== 
     psi = 0.223*[#   8]+0.223*[#   9]+0.223*[#  12]+0.223*[#  13]+
    |psi|^2 = 0.892
==== e(  11) =    16.47949 eV ==== 
     psi = 0.539*[#   2]+0.080*[#   7]+0.080*[#  11]+0.032*[#   6]+0.032*[#  10]+
          +0.015*[#   1]+
    |psi|^2 = 0.778
==== e(  12) =    17.33104 eV ==== 
     psi = 0.371*[#   7]+0.371*[#  11]+0.092*[#   6]+0.092*[#  10]+
    |psi|^2 = 0.927
==== e(  13) =    19.30327 eV ==== 
     psi = 0.387*[#   6]+0.387*[#  10]+0.104*[#   7]+0.104*[#  11]+
    |psi|^2 = 0.982
==== e(  14) =    21.98841 eV ==== 
     psi = 
    |psi|^2 = 0.001
==== e(  15) =    21.98842 eV ==== 
     psi = 
    |psi|^2 = 0.001
==== e(  16) =    22.85603 eV ==== 
     psi = 0.080*[#   2]+0.008*[#   6]+0.008*[#  10]+0.007*[#   7]+0.007*[#  11]+
          +0.001*[#   1]+
    |psi|^2 = 0.110

 k =   0.0000000000  0.0000000000  0.3262077271
==== e(   1) =   -65.98139 eV ==== 
     psi = 0.922*[#   1]+0.038*[#   7]+0.038*[#  11]+0.001*[#   6]+0.001*[#  10]+
    |psi|^2 = 1.000
==== e(   2) =   -32.72396 eV ==== 
     psi = 0.500*[#   4]+0.500*[#   5]+
    |psi|^2 = 1.000
==== e(   3) =   -32.72396 eV ==== 
     psi = 0.500*[#   4]+0.500*[#   5]+
    |psi|^2 = 1.000
==== e(   4) =   -32.71953 eV ==== 
     psi = 0.993*[#   3]+0.003*[#   6]+0.003*[#  10]+
    |psi|^2 = 1.000
==== e(   5) =    -2.33522 eV ==== 
     psi = 0.425*[#   6]+0.425*[#  10]+0.114*[#   2]+0.011*[#   7]+0.011*[#  11]+
          +0.007*[#   1]+0.005*[#   3]+
    |psi|^2 = 0.999
==== e(   6) =     2.22825 eV ==== 
     psi = 0.347*[#   7]+0.347*[#  11]+0.165*[#   2]+0.047*[#   1]+0.045*[#   6]+
          +0.045*[#  10]+0.001*[#   3]+
    |psi|^2 = 0.997
==== e(   7) =     9.84736 eV ==== 
     psi = 0.249*[#   8]+0.249*[#   9]+0.249*[#  12]+0.249*[#  13]+
    |psi|^2 = 0.996
==== e(   8) =     9.84739 eV ==== 
     psi = 0.249*[#   8]+0.249*[#   9]+0.249*[#  12]+0.249*[#  13]+
    |psi|^2 = 0.996
==== e(   9) =    15.84462 eV ==== 
     psi = 0.224*[#   8]+0.224*[#   9]+0.224*[#  12]+0.224*[#  13]+
    |psi|^2 = 0.895
==== e(  10) =    15.84466 eV ==== 
     psi = 0.224*[#   8]+0.224*[#   9]+0.224*[#  12]+0.224*[#  13]+
    |psi|^2 = 0.895
==== e(  11) =    17.30779 eV ==== 
     psi = 0.413*[#   7]+0.413*[#  11]+0.053*[#   6]+0.053*[#  10]+
    |psi|^2 = 0.932
==== e(  12) =    17.39984 eV ==== 
     psi = 0.559*[#   2]+0.081*[#   7]+0.081*[#  11]+0.019*[#   1]+0.019*[#   6]+
          +0.019*[#  10]+
    |psi|^2 = 0.776
==== e(  13) =    19.30739 eV ==== 
     psi = 0.431*[#   6]+0.431*[#  10]+0.059*[#   7]+0.059*[#  11]+
    |psi|^2 = 0.981
==== e(  14) =    21.70207 eV ==== 
     psi = 
    |psi|^2 = 0.001
==== e(  15) =    21.70208 eV ==== 
     psi = 
    |psi|^2 = 0.001
==== e(  16) =    23.00023 eV ==== 
     psi = 0.058*[#   2]+0.005*[#   7]+0.005*[#  11]+0.004*[#   6]+0.004*[#  10]+
          +0.001*[#   1]+
    |psi|^2 = 0.078

 k =   0.0000000000  0.0000000000  0.3624530301
==== e(   1) =   -65.98139 eV ==== 
     psi = 0.916*[#   1]+0.041*[#   7]+0.041*[#  11]+
    |psi|^2 = 1.000
==== e(   2) =   -32.72393 eV ==== 
     psi = 0.500*[#   4]+0.500*[#   5]+
    |psi|^2 = 1.000
==== e(   3) =   -32.72393 eV ==== 
     psi = 0.500*[#   4]+0.500*[#   5]+
    |psi|^2 = 1.000
==== e(   4) =   -32.72019 eV ==== 
     psi = 0.994*[#   3]+0.003*[#   6]+0.003*[#  10]+
    |psi|^2 = 1.000
==== e(   5) =    -2.19375 eV ==== 
     psi = 0.459*[#   6]+0.459*[#  10]+0.058*[#   2]+0.006*[#   7]+0.006*[#  11]+
          +0.006*[#   3]+0.004*[#   1]+
    |psi|^2 = 0.998
==== e(   6) =     1.92630 eV ==== 
     psi = 0.347*[#   7]+0.347*[#  11]+0.201*[#   2]+0.051*[#   1]+0.025*[#   6]+
          +0.025*[#  10]+
    |psi|^2 = 0.997
==== e(   7) =     9.87842 eV ==== 
     psi = 0.249*[#   8]+0.249*[#   9]+0.249*[#  12]+0.249*[#  13]+
    |psi|^2 = 0.997
==== e(   8) =     9.87845 eV ==== 
     psi = 0.249*[#   8]+0.249*[#   9]+0.249*[#  12]+0.249*[#  13]+
    |psi|^2 = 0.997
==== e(   9) =    15.87154 eV ==== 
     psi = 0.224*[#   8]+0.224*[#   9]+0.224*[#  12]+0.224*[#  13]+
    |psi|^2 = 0.897
==== e(  10) =    15.87158 eV ==== 
     psi = 0.224*[#   8]+0.224*[#   9]+0.224*[#  12]+0.224*[#  13]+
    |psi|^2 = 0.897
==== e(  11) =    17.29011 eV ==== 
     psi = 0.444*[#   7]+0.444*[#  11]+0.024*[#   6]+0.024*[#  10]+
    |psi|^2 = 0.936
==== e(  12) =    18.22743 eV ==== 
     psi = 0.584*[#   2]+0.082*[#   7]+0.082*[#  11]+0.022*[#   1]+0.009*[#   6]+
          +0.009*[#  10]+
    |psi|^2 = 0.788
==== e(  13) =    19.31046 eV ==== 
     psi = 0.463*[#   6]+0.463*[#  10]+0.027*[#   7]+0.027*[#  11]+
    |psi|^2 = 0.980
==== e(  14) =    21.49363 eV ==== 
     psi = 
    |psi|^2 = 0.000
==== e(  15) =    21.49364 eV ==== 
     psi = 
    |psi|^2 = 0.000
==== e(  16) =    23.12146 eV ==== 
     psi = 0.032*[#   2]+0.003*[#   7]+0.003*[#  11]+0.002*[#   6]+0.002*[#  10]+
    |psi|^2 = 0.042

 k =   0.0000000000  0.0000000000  0.3986983331
==== e(   1) =   -65.98138 eV ==== 
     psi = 0.913*[#   1]+0.043*[#   7]+0.043*[#  11]+0.002*[#   2]+
    |psi|^2 = 1.000
==== e(   2) =   -32.72391 eV ==== 
     psi = 0.500*[#   4]+0.500*[#   5]+
    |psi|^2 = 1.000
==== e(   3) =   -32.72390 eV ==== 
     psi = 0.500*[#   4]+0.500*[#   5]+
    |psi|^2 = 1.000
==== e(   4) =   -32.72056 eV ==== 
     psi = 0.994*[#   3]+0.003*[#   6]+0.003*[#  10]+
    |psi|^2 = 1.000
==== e(   5) =    -2.09583 eV ==== 
     psi = 0.486*[#   6]+0.486*[#  10]+0.016*[#   2]+0.006*[#   3]+0.002*[#   7]+
          +0.002*[#  11]+
    |psi|^2 = 0.998
==== e(   6) =     1.73155 eV ==== 
     psi = 0.349*[#   7]+0.349*[#  11]+0.230*[#   2]+0.055*[#   1]+0.007*[#   6]+
          +0.007*[#  10]+
    |psi|^2 = 0.997
==== e(   7) =     9.89817 eV ==== 
     psi = 0.249*[#   8]+0.249*[#   9]+0.249*[#  12]+0.249*[#  13]+
    |psi|^2 = 0.997
==== e(   8) =     9.89821 eV ==== 
     psi = 0.249*[#   8]+0.249*[#   9]+0.249*[#  12]+0.249*[#  13]+
    |psi|^2 = 0.997
==== e(   9) =    15.88874 eV ==== 
     psi = 0.225*[#   8]+0.225*[#   9]+0.225*[#  12]+0.225*[#  13]+
    |psi|^2 = 0.898
==== e(  10) =    15.88877 eV ==== 
     psi = 0.225*[#   8]+0.225*[#   9]+0.225*[#  12]+0.225*[#  13]+
    |psi|^2 = 0.898
==== e(  11) =    17.27908 eV ==== 
     psi = 0.463*[#   7]+0.463*[#  11]+0.006*[#   6]+0.006*[#  10]+
    |psi|^2 = 0.939
==== e(  12) =    18.84590 eV ==== 
     psi = 0.612*[#   2]+0.085*[#   7]+0.085*[#  11]+0.025*[#   1]+0.002*[#   6]+
          +0.002*[#  10]+
    |psi|^2 = 0.812
==== e(  13) =    19.31236 eV ==== 
     psi = 0.483*[#   6]+0.483*[#  10]+0.007*[#   7]+0.007*[#  11]+
    |psi|^2 = 0.979
==== e(  14) =    21.36698 eV ==== 
     psi = 
    |psi|^2 = 0.000
==== e(  15) =    21.36699 eV ==== 
     psi = 
    |psi|^2 = 0.000
==== e(  16) =    23.20336 eV ==== 
     psi = 0.009*[#   2]+
    |psi|^2 = 0.012

 k =   0.0000000000  0.0000000000 -0.4349436361
==== e(   1) =   -65.98139 eV ==== 
     psi = 0.911*[#   1]+0.043*[#   7]+0.043*[#  11]+0.002*[#   2]+
    |psi|^2 = 1.000
==== e(   2) =   -32.72392 eV ==== 
     psi = 0.500*[#   4]+0.500*[#   5]+
    |psi|^2 = 1.000
==== e(   3) =   -32.72392 eV ==== 
     psi = 0.500*[#   4]+0.500*[#   5]+
    |psi|^2 = 1.000
==== e(   4) =   -32.72077 eV ==== 
     psi = 0.994*[#   3]+0.003*[#   6]+0.003*[#  10]+
    |psi|^2 = 1.000
==== e(   5) =    -2.06054 eV ==== 
     psi = 0.496*[#   6]+0.496*[#  10]+0.006*[#   3]+
    |psi|^2 = 0.998
==== e(   6) =     1.66385 eV ==== 
     psi = 0.350*[#   7]+0.350*[#  11]+0.241*[#   2]+0.056*[#   1]+
    |psi|^2 = 0.998
==== e(   7) =     9.90495 eV ==== 
     psi = 0.249*[#   8]+0.249*[#   9]+0.249*[#  12]+0.249*[#  13]+
    |psi|^2 = 0.998
==== e(   8) =     9.90499 eV ==== 
     psi = 0.249*[#   8]+0.249*[#   9]+0.249*[#  12]+0.249*[#  13]+
    |psi|^2 = 0.998
==== e(   9) =    15.89462 eV ==== 
     psi = 0.225*[#   8]+0.225*[#   9]+0.225*[#  12]+0.225*[#  13]+
    |psi|^2 = 0.899
==== e(  10) =    15.89466 eV ==== 
     psi = 0.225*[#   8]+0.225*[#   9]+0.225*[#  12]+0.225*[#  13]+
    |psi|^2 = 0.899
==== e(  11) =    17.27533 eV ==== 
     psi = 0.470*[#   7]+0.470*[#  11]+
    |psi|^2 = 0.939
==== e(  12) =    19.08504 eV ==== 
     psi = 0.627*[#   2]+0.086*[#   7]+0.086*[#  11]+0.027*[#   1]+
    |psi|^2 = 0.826
==== e(  13) =    19.31300 eV ==== 
     psi = 0.490*[#   6]+0.490*[#  10]+
    |psi|^2 = 0.979
==== e(  14) =    21.32449 eV ==== 
     psi = 
    |psi|^2 = 0.000
==== e(  15) =    21.32449 eV ==== 
     psi = 
    |psi|^2 = 0.000
==== e(  16) =    23.23195 eV ==== 
     psi = 
    |psi|^2 = 0.001

 k =   0.0000000000  0.0481125224  0.0000000000
==== e(   1) =   -65.98160 eV ==== 
     psi = 0.972*[#   1]+0.015*[#   2]+0.006*[#   6]+0.006*[#  10]+
    |psi|^2 = 1.000
==== e(   2) =   -32.72522 eV ==== 
     psi = 0.499*[#   4]+0.499*[#   5]+
    |psi|^2 = 1.000
==== e(   3) =   -32.72468 eV ==== 
     psi = 0.500*[#   4]+0.500*[#   5]+
    |psi|^2 = 1.000
==== e(   4) =   -32.71297 eV ==== 
     psi = 0.993*[#   3]+0.003*[#   7]+0.003*[#  11]+
    |psi|^2 = 1.000
==== e(   5) =    -3.31127 eV ==== 
     psi = 0.406*[#   2]+0.278*[#   6]+0.278*[#  10]+0.027*[#   1]+0.002*[#   8]+
          +0.002*[#   9]+0.002*[#  12]+0.002*[#  13]+
    |psi|^2 = 0.999
==== e(   6) =     6.16806 eV ==== 
     psi = 0.493*[#   7]+0.493*[#  11]+0.007*[#   3]+
    |psi|^2 = 0.992
==== e(   7) =     9.37625 eV ==== 
     psi = 0.244*[#   8]+0.244*[#   9]+0.244*[#  12]+0.244*[#  13]+0.007*[#   6]+
          +0.007*[#  10]+
    |psi|^2 = 0.992
==== e(   8) =     9.46127 eV ==== 
     psi = 0.248*[#   8]+0.248*[#   9]+0.248*[#  12]+0.248*[#  13]+
    |psi|^2 = 0.992
==== e(   9) =    10.78172 eV ==== 
     psi = 0.498*[#   2]+0.177*[#   6]+0.177*[#  10]+0.002*[#   8]+0.002*[#   9]+
          +0.002*[#  12]+0.002*[#  13]+
    |psi|^2 = 0.859
==== e(  10) =    15.57051 eV ==== 
     psi = 0.211*[#   8]+0.211*[#   9]+0.211*[#  12]+0.211*[#  13]+0.013*[#   6]+
          +0.013*[#  10]+0.001*[#   2]+
    |psi|^2 = 0.875
==== e(  11) =    15.72094 eV ==== 
     psi = 0.219*[#   8]+0.219*[#   9]+0.219*[#  12]+0.219*[#  13]+
    |psi|^2 = 0.877
==== e(  12) =    17.56865 eV ==== 
     psi = 0.434*[#   6]+0.434*[#  10]+0.004*[#   8]+0.004*[#   9]+0.004*[#  12]+
          +0.004*[#  13]+
    |psi|^2 = 0.886
==== e(  13) =    19.15546 eV ==== 
     psi = 0.493*[#   7]+0.493*[#  11]+
    |psi|^2 = 0.986
==== e(  14) =    22.23166 eV ==== 
     psi = 0.078*[#   2]+0.026*[#   6]+0.026*[#  10]+0.003*[#   8]+0.003*[#   9]+
          +0.003*[#  12]+0.003*[#  13]+
    |psi|^2 = 0.142
==== e(  15) =    25.26222 eV ==== 
     psi = 0.005*[#   6]+0.005*[#  10]+0.001*[#   8]+0.001*[#   9]+0.001*[#  12]+
          +0.001*[#  13]+
    |psi|^2 = 0.016
==== e(  16) =    25.34786 eV ==== 
     psi = 0.002*[#   8]+0.002*[#   9]+0.002*[#  12]+0.002*[#  13]+
    |psi|^2 = 0.006

 k =   0.0000000000  0.0481125224  0.0362453030
==== e(   1) =   -65.98160 eV ==== 
     psi = 0.971*[#   1]+0.014*[#   2]+0.005*[#   6]+0.005*[#  10]+
    |psi|^2 = 1.000
==== e(   2) =   -32.72521 eV ==== 
     psi = 0.499*[#   4]+0.499*[#   5]+
    |psi|^2 = 1.000
==== e(   3) =   -32.72469 eV ==== 
     psi = 0.500*[#   4]+0.500*[#   5]+
    |psi|^2 = 1.000
==== e(   4) =   -32.71311 eV ==== 
     psi = 0.993*[#   3]+0.003*[#   7]+0.003*[#  11]+
    |psi|^2 = 1.000
==== e(   5) =    -3.29619 eV ==== 
     psi = 0.403*[#   2]+0.279*[#   6]+0.279*[#  10]+0.026*[#   1]+0.002*[#   8]+
          +0.002*[#   9]+0.002*[#  12]+0.002*[#  13]+
    |psi|^2 = 0.999
==== e(   6) =     6.03514 eV ==== 
     psi = 0.479*[#   7]+0.479*[#  11]+0.008*[#   6]+0.008*[#  10]+0.008*[#   2]+
          +0.006*[#   3]+0.001*[#   1]+
    |psi|^2 = 0.991
==== e(   7) =     9.38224 eV ==== 
     psi = 0.245*[#   8]+0.245*[#   9]+0.245*[#  12]+0.245*[#  13]+0.007*[#   6]+
          +0.007*[#  10]+
    |psi|^2 = 0.992
==== e(   8) =     9.46699 eV ==== 
     psi = 0.248*[#   8]+0.248*[#   9]+0.248*[#  12]+0.248*[#  13]+
    |psi|^2 = 0.992
==== e(   9) =    10.94970 eV ==== 
     psi = 0.493*[#   2]+0.167*[#   6]+0.167*[#  10]+0.011*[#   7]+0.011*[#  11]+
          +0.002*[#   8]+0.002*[#   9]+0.002*[#  12]+0.002*[#  13]+
    |psi|^2 = 0.858
==== e(  10) =    15.57596 eV ==== 
     psi = 0.212*[#   8]+0.212*[#   9]+0.212*[#  12]+0.212*[#  13]+0.013*[#   6]+
          +0.013*[#  10]+0.001*[#   2]+
    |psi|^2 = 0.876
==== e(  11) =    15.72579 eV ==== 
     psi = 0.219*[#   8]+0.219*[#   9]+0.219*[#  12]+0.219*[#  13]+
    |psi|^2 = 0.878
==== e(  12) =    17.55928 eV ==== 
     psi = 0.422*[#   6]+0.422*[#  10]+0.013*[#   7]+0.013*[#  11]+0.004*[#   8]+
          +0.004*[#   9]+0.004*[#  12]+0.004*[#  13]+
    |psi|^2 = 0.886
==== e(  13) =    19.15902 eV ==== 
     psi = 0.480*[#   7]+0.480*[#  11]+0.013*[#   6]+0.013*[#  10]+
    |psi|^2 = 0.986
==== e(  14) =    22.24551 eV ==== 
     psi = 0.079*[#   2]+0.026*[#   6]+0.026*[#  10]+0.003*[#   8]+0.003*[#   9]+
          +0.003*[#  12]+0.003*[#  13]+
    |psi|^2 = 0.143
==== e(  15) =    25.09742 eV ==== 
     psi = 0.005*[#   6]+0.005*[#  10]+0.001*[#   8]+0.001*[#   9]+0.001*[#  12]+
          +0.001*[#  13]+
    |psi|^2 = 0.016
==== e(  16) =    25.15953 eV ==== 
     psi = 0.002*[#   8]+0.002*[#   9]+0.002*[#  12]+0.002*[#  13]+
    |psi|^2 = 0.006

 k =   0.0000000000  0.0481125224  0.0724906060
==== e(   1) =   -65.98158 eV ==== 
     psi = 0.969*[#   1]+0.012*[#   2]+0.005*[#   6]+0.005*[#  10]+0.003*[#   7]+
          +0.003*[#  11]+
    |psi|^2 = 1.000
==== e(   2) =   -32.72517 eV ==== 
     psi = 0.499*[#   4]+0.499*[#   5]+
    |psi|^2 = 1.000
==== e(   3) =   -32.72465 eV ==== 
     psi = 0.500*[#   4]+0.500*[#   5]+
    |psi|^2 = 1.000
==== e(   4) =   -32.71347 eV ==== 
     psi = 0.993*[#   3]+0.003*[#   7]+0.003*[#  11]+
    |psi|^2 = 1.000
==== e(   5) =    -3.25123 eV ==== 
     psi = 0.391*[#   2]+0.283*[#   6]+0.283*[#  10]+0.025*[#   1]+0.003*[#   7]+
          +0.003*[#  11]+0.002*[#   8]+0.002*[#   9]+0.002*[#  12]+0.002*[#  13]+
    |psi|^2 = 0.999
==== e(   6) =     5.68462 eV ==== 
     psi = 0.451*[#   7]+0.451*[#  11]+0.027*[#   6]+0.027*[#  10]+0.024*[#   2]+
          +0.006*[#   3]+0.005*[#   1]+
    |psi|^2 = 0.990
==== e(   7) =     9.39988 eV ==== 
     psi = 0.245*[#   8]+0.245*[#   9]+0.245*[#  12]+0.245*[#  13]+0.007*[#   6]+
          +0.007*[#  10]+
    |psi|^2 = 0.992
==== e(   8) =     9.48384 eV ==== 
     psi = 0.248*[#   8]+0.248*[#   9]+0.248*[#  12]+0.248*[#  13]+
    |psi|^2 = 0.993
==== e(   9) =    11.40539 eV ==== 
     psi = 0.485*[#   2]+0.146*[#   6]+0.146*[#  10]+0.034*[#   7]+0.034*[#  11]+
          +0.002*[#   8]+0.002*[#   9]+0.002*[#  12]+0.002*[#  13]+
    |psi|^2 = 0.854
==== e(  10) =    15.59213 eV ==== 
     psi = 0.212*[#   8]+0.212*[#   9]+0.212*[#  12]+0.212*[#  13]+0.013*[#   6]+
          +0.013*[#  10]+0.001*[#   2]+
    |psi|^2 = 0.877
==== e(  11) =    15.74026 eV ==== 
     psi = 0.219*[#   8]+0.219*[#   9]+0.219*[#  12]+0.219*[#  13]+
    |psi|^2 = 0.878
==== e(  12) =    17.53182 eV ==== 
     psi = 0.388*[#   6]+0.388*[#  10]+0.048*[#   7]+0.048*[#  11]+0.004*[#   8]+
          +0.004*[#   9]+0.004*[#  12]+0.004*[#  13]+
    |psi|^2 = 0.889
==== e(  13) =    19.16942 eV ==== 
     psi = 0.441*[#   7]+0.441*[#  11]+0.050*[#   6]+0.050*[#  10]+
    |psi|^2 = 0.984
==== e(  14) =    22.28674 eV ==== 
     psi = 0.081*[#   2]+0.025*[#   6]+0.025*[#  10]+0.003*[#   8]+0.003*[#   9]+
          +0.003*[#  12]+0.003*[#  13]+0.001*[#   7]+0.001*[#  11]+
    |psi|^2 = 0.145
==== e(  15) =    24.69802 eV ==== 
     psi = 0.003*[#   6]+0.003*[#  10]+0.003*[#   7]+0.003*[#  11]+0.001*[#   8]+
          +0.001*[#   9]+0.001*[#  12]+0.001*[#  13]+
    |psi|^2 = 0.017
==== e(  16) =    24.71337 eV ==== 
     psi = 0.001*[#   8]+0.001*[#   9]+0.001*[#  12]+0.001*[#  13]+
    |psi|^2 = 0.006

 k =   0.0000000000  0.0481125224  0.1087359090
==== e(   1) =   -65.98156 eV ==== 
     psi = 0.965*[#   1]+0.010*[#   2]+0.007*[#   7]+0.007*[#  11]+0.005*[#   6]+
          +0.005*[#  10]+
    |psi|^2 = 1.000
==== e(   2) =   -32.72514 eV ==== 
     psi = 0.500*[#   4]+0.500*[#   5]+
    |psi|^2 = 1.000
==== e(   3) =   -32.72461 eV ==== 
     psi = 0.500*[#   4]+0.500*[#   5]+
    |psi|^2 = 1.000
==== e(   4) =   -32.71405 eV ==== 
     psi = 0.993*[#   3]+0.003*[#   7]+0.003*[#  11]+
    |psi|^2 = 1.000
==== e(   5) =    -3.17728 eV ==== 
     psi = 0.372*[#   2]+0.290*[#   6]+0.290*[#  10]+0.024*[#   1]+0.006*[#   7]+
          +0.006*[#  11]+0.003*[#   8]+0.003*[#   9]+0.003*[#  12]+0.003*[#  13]+
    |psi|^2 = 0.999
==== e(   6) =     5.20747 eV ==== 
     psi = 0.422*[#   7]+0.422*[#  11]+0.046*[#   6]+0.046*[#  10]+0.039*[#   2]+
          +0.009*[#   1]+0.005*[#   3]+
    |psi|^2 = 0.990
==== e(   7) =     9.42819 eV ==== 
     psi = 0.245*[#   8]+0.245*[#   9]+0.245*[#  12]+0.245*[#  13]+0.007*[#   6]+
          +0.007*[#  10]+
    |psi|^2 = 0.992
==== e(   8) =     9.51090 eV ==== 
     psi = 0.248*[#   8]+0.248*[#   9]+0.248*[#  12]+0.248*[#  13]+
    |psi|^2 = 0.993
==== e(   9) =    12.05748 eV ==== 
     psi = 0.483*[#   2]+0.121*[#   6]+0.121*[#  10]+0.055*[#   7]+0.055*[#  11]+
          +0.002*[#   8]+0.002*[#   9]+0.002*[#  12]+0.002*[#  13]+
    |psi|^2 = 0.844
==== e(  10) =    15.61824 eV ==== 
     psi = 0.212*[#   8]+0.212*[#   9]+0.212*[#  12]+0.212*[#  13]+0.014*[#   6]+
          +0.014*[#  10]+0.002*[#   2]+
    |psi|^2 = 0.879
==== e(  11) =    15.76352 eV ==== 
     psi = 0.220*[#   8]+0.220*[#   9]+0.220*[#  12]+0.220*[#  13]+
    |psi|^2 = 0.879
==== e(  12) =    17.48820 eV ==== 
     psi = 0.338*[#   6]+0.338*[#  10]+0.101*[#   7]+0.101*[#  11]+0.004*[#   8]+
          +0.004*[#   9]+0.004*[#  12]+0.004*[#  13]+
    |psi|^2 = 0.892
==== e(  13) =    19.18581 eV ==== 
     psi = 0.385*[#   7]+0.385*[#  11]+0.105*[#   6]+0.105*[#  10]+
    |psi|^2 = 0.982
==== e(  14) =    22.35418 eV ==== 
     psi = 0.086*[#   2]+0.023*[#   6]+0.023*[#  10]+0.003*[#   8]+0.003*[#   9]+
          +0.003*[#  12]+0.003*[#  13]+0.002*[#   7]+0.002*[#  11]+
    |psi|^2 = 0.148
==== e(  15) =    24.17201 eV ==== 
     psi = 0.001*[#   8]+0.001*[#   9]+0.001*[#  12]+0.001*[#  13]+
    |psi|^2 = 0.005
==== e(  16) =    24.20404 eV ==== 
     psi = 0.005*[#   7]+0.005*[#  11]+0.002*[#   6]+0.002*[#  10]+0.001*[#   8]+
          +0.001*[#   9]+0.001*[#  12]+0.001*[#  13]+
    |psi|^2 = 0.019

 k =   0.0000000000  0.0481125224  0.1449812120
==== e(   1) =   -65.98153 eV ==== 
     psi = 0.960*[#   1]+0.011*[#   7]+0.011*[#  11]+0.007*[#   2]+0.004*[#   6]+
          +0.004*[#  10]+
    |psi|^2 = 1.000
==== e(   2) =   -32.72509 eV ==== 
     psi = 0.500*[#   4]+0.500*[#   5]+
    |psi|^2 = 1.000
==== e(   3) =   -32.72455 eV ==== 
     psi = 0.500*[#   4]+0.500*[#   5]+
    |psi|^2 = 1.000
==== e(   4) =   -32.71483 eV ==== 
     psi = 0.993*[#   3]+0.002*[#   7]+0.002*[#  11]+
    |psi|^2 = 1.000
==== e(   5) =    -3.07593 eV ==== 
     psi = 0.346*[#   2]+0.300*[#   6]+0.300*[#  10]+0.022*[#   1]+0.009*[#   7]+
          +0.009*[#  11]+0.003*[#   8]+0.003*[#   9]+0.003*[#  12]+0.003*[#  13]+
          +0.001*[#   3]+
    |psi|^2 = 0.999
==== e(   6) =     4.67475 eV ==== 
     psi = 0.398*[#   7]+0.398*[#  11]+0.060*[#   6]+0.060*[#  10]+0.053*[#   2]+
          +0.015*[#   1]+0.005*[#   3]+
    |psi|^2 = 0.991
==== e(   7) =     9.46559 eV ==== 
     psi = 0.245*[#   8]+0.245*[#   9]+0.245*[#  12]+0.245*[#  13]+0.006*[#   6]+
          +0.006*[#  10]+
    |psi|^2 = 0.993
==== e(   8) =     9.54666 eV ==== 
     psi = 0.248*[#   8]+0.248*[#   9]+0.248*[#  12]+0.248*[#  13]+
    |psi|^2 = 0.993
==== e(   9) =    12.83407 eV ==== 
     psi = 0.487*[#   2]+0.098*[#   6]+0.098*[#  10]+0.068*[#   7]+0.068*[#  11]+
          +0.002*[#   8]+0.002*[#   9]+0.002*[#  12]+0.002*[#  13]+0.002*[#   1]+
    |psi|^2 = 0.831
==== e(  10) =    15.65345 eV ==== 
     psi = 0.212*[#   8]+0.212*[#   9]+0.212*[#  12]+0.212*[#  13]+0.014*[#   6]+
          +0.014*[#  10]+0.003*[#   2]+
    |psi|^2 = 0.881
==== e(  11) =    15.79437 eV ==== 
     psi = 0.220*[#   8]+0.220*[#   9]+0.220*[#  12]+0.220*[#  13]+
    |psi|^2 = 0.881
==== e(  12) =    17.43134 eV ==== 
     psi = 0.279*[#   6]+0.279*[#  10]+0.162*[#   7]+0.162*[#  11]+0.003*[#   8]+
          +0.003*[#   9]+0.003*[#  12]+0.003*[#  13]+
    |psi|^2 = 0.895
==== e(  13) =    19.20706 eV ==== 
     psi = 0.318*[#   7]+0.318*[#  11]+0.170*[#   6]+0.170*[#  10]+
    |psi|^2 = 0.979
==== e(  14) =    22.44577 eV ==== 
     psi = 0.090*[#   2]+0.021*[#   6]+0.021*[#  10]+0.004*[#   7]+0.004*[#  11]+
          +0.003*[#   8]+0.003*[#   9]+0.003*[#  12]+0.003*[#  13]+
    |psi|^2 = 0.150
==== e(  15) =    23.61927 eV ==== 
     psi = 0.001*[#   8]+0.001*[#   9]+0.001*[#  12]+0.001*[#  13]+
    |psi|^2 = 0.004
==== e(  16) =    23.69439 eV ==== 
     psi = 0.007*[#   7]+0.007*[#  11]+0.001*[#   6]+0.001*[#  10]+
    |psi|^2 = 0.021

 k =   0.0000000000  0.0481125224  0.1812265150
==== e(   1) =   -65.98149 eV ==== 
     psi = 0.953*[#   1]+0.017*[#   7]+0.017*[#  11]+0.004*[#   2]+0.004*[#   6]+
          +0.004*[#  10]+
    |psi|^2 = 1.000
==== e(   2) =   -32.72502 eV ==== 
     psi = 0.500*[#   4]+0.500*[#   5]+
    |psi|^2 = 1.000
==== e(   3) =   -32.72445 eV ==== 
     psi = 0.500*[#   4]+0.500*[#   5]+
    |psi|^2 = 1.000
==== e(   4) =   -32.71574 eV ==== 
     psi = 0.993*[#   3]+0.002*[#   7]+0.002*[#  11]+0.001*[#   6]+0.001*[#  10]+
    |psi|^2 = 1.000
==== e(   5) =    -2.94971 eV ==== 
     psi = 0.315*[#   6]+0.315*[#  10]+0.312*[#   2]+0.020*[#   1]+0.013*[#   7]+
          +0.013*[#  11]+0.003*[#   8]+0.003*[#   9]+0.003*[#  12]+0.003*[#  13]+
          +0.002*[#   3]+
    |psi|^2 = 0.999
==== e(   6) =     4.12963 eV ==== 
     psi = 0.380*[#   7]+0.380*[#  11]+0.070*[#   6]+0.070*[#  10]+0.067*[#   2]+
          +0.021*[#   1]+0.004*[#   3]+
    |psi|^2 = 0.992
==== e(   7) =     9.50996 eV ==== 
     psi = 0.245*[#   8]+0.245*[#   9]+0.245*[#  12]+0.245*[#  13]+0.006*[#   6]+
          +0.006*[#  10]+
    |psi|^2 = 0.993
==== e(   8) =     9.58902 eV ==== 
     psi = 0.248*[#   8]+0.248*[#   9]+0.248*[#  12]+0.248*[#  13]+
    |psi|^2 = 0.994
==== e(   9) =    13.68997 eV ==== 
     psi = 0.495*[#   2]+0.076*[#   6]+0.076*[#  10]+0.075*[#   7]+0.075*[#  11]+
          +0.004*[#   1]+0.003*[#   8]+0.003*[#   9]+0.003*[#  12]+0.003*[#  13]+
    |psi|^2 = 0.815
==== e(  10) =    15.69685 eV ==== 
     psi = 0.212*[#   8]+0.212*[#   9]+0.212*[#  12]+0.212*[#  13]+0.015*[#   6]+
          +0.015*[#  10]+0.006*[#   2]+0.001*[#   7]+0.001*[#  11]+
    |psi|^2 = 0.885
==== e(  11) =    15.83111 eV ==== 
     psi = 0.221*[#   8]+0.221*[#   9]+0.221*[#  12]+0.221*[#  13]+
    |psi|^2 = 0.883
==== e(  12) =    17.36492 eV ==== 
     psi = 0.226*[#   7]+0.226*[#  11]+0.218*[#   6]+0.218*[#  10]+0.003*[#   8]+
          +0.003*[#   9]+0.003*[#  12]+0.003*[#  13]+
    |psi|^2 = 0.899
==== e(  13) =    19.23191 eV ==== 
     psi = 0.248*[#   7]+0.248*[#  11]+0.238*[#   6]+0.238*[#  10]+0.001*[#   8]+
          +0.001*[#   9]+0.001*[#  12]+0.001*[#  13]+
    |psi|^2 = 0.976
==== e(  14) =    22.55794 eV ==== 
     psi = 0.094*[#   2]+0.018*[#   6]+0.018*[#  10]+0.005*[#   7]+0.005*[#  11]+
          +0.003*[#   8]+0.003*[#   9]+0.003*[#  12]+0.003*[#  13]+
    |psi|^2 = 0.151
==== e(  15) =    23.09294 eV ==== 
     psi = 
    |psi|^2 = 0.004
==== e(  16) =    23.20787 eV ==== 
     psi = 0.010*[#   7]+0.010*[#  11]+
    |psi|^2 = 0.024

 k =   0.0000000000  0.0481125224  0.2174718180
==== e(   1) =   -65.98145 eV ==== 
     psi = 0.946*[#   1]+0.022*[#   7]+0.022*[#  11]+0.003*[#   6]+0.003*[#  10]+
          +0.002*[#   2]+
    |psi|^2 = 1.000
==== e(   2) =   -32.72494 eV ==== 
     psi = 0.500*[#   4]+0.500*[#   5]+
    |psi|^2 = 1.000
==== e(   3) =   -32.72437 eV ==== 
     psi = 0.500*[#   4]+0.500*[#   5]+
    |psi|^2 = 1.000
==== e(   4) =   -32.71672 eV ==== 
     psi = 0.993*[#   3]+0.001*[#   6]+0.001*[#   7]+0.001*[#  10]+0.001*[#  11]+
    |psi|^2 = 1.000
==== e(   5) =    -2.80245 eV ==== 
     psi = 0.334*[#   6]+0.334*[#  10]+0.271*[#   2]+0.017*[#   1]+0.015*[#   7]+
          +0.015*[#  11]+0.003*[#   8]+0.003*[#   9]+0.003*[#  12]+0.003*[#  13]+
          +0.002*[#   3]+
    |psi|^2 = 0.999
==== e(   6) =     3.59839 eV ==== 
     psi = 0.366*[#   7]+0.366*[#  11]+0.083*[#   2]+0.073*[#   6]+0.073*[#  10]+
          +0.028*[#   1]+0.004*[#   3]+
    |psi|^2 = 0.994
==== e(   7) =     9.55861 eV ==== 
     psi = 0.245*[#   8]+0.245*[#   9]+0.245*[#  12]+0.245*[#  13]+0.006*[#   6]+
          +0.006*[#  10]+
    |psi|^2 = 0.994
==== e(   8) =     9.63538 eV ==== 
     psi = 0.249*[#   8]+0.249*[#   9]+0.249*[#  12]+0.249*[#  13]+
    |psi|^2 = 0.994
==== e(   9) =    14.59284 eV ==== 
     psi = 0.498*[#   2]+0.077*[#   7]+0.077*[#  11]+0.055*[#   6]+0.055*[#  10]+
          +0.008*[#   1]+0.007*[#   8]+0.007*[#   9]+0.007*[#  12]+0.007*[#  13]+
    |psi|^2 = 0.796
==== e(  10) =    15.75010 eV ==== 
     psi = 0.209*[#   8]+0.209*[#   9]+0.209*[#  12]+0.209*[#  13]+0.017*[#   6]+
          +0.017*[#  10]+0.015*[#   2]+0.003*[#   7]+0.003*[#  11]+
    |psi|^2 = 0.891
==== e(  11) =    15.87151 eV ==== 
     psi = 0.221*[#   8]+0.221*[#   9]+0.221*[#  12]+0.221*[#  13]+
    |psi|^2 = 0.886
==== e(  12) =    17.29310 eV ==== 
     psi = 0.286*[#   7]+0.286*[#  11]+0.160*[#   6]+0.160*[#  10]+0.002*[#   8]+
          +0.002*[#   9]+0.002*[#  12]+0.002*[#  13]+
    |psi|^2 = 0.901
==== e(  13) =    19.25910 eV ==== 
     psi = 0.301*[#   6]+0.301*[#  10]+0.183*[#   7]+0.183*[#  11]+0.001*[#   8]+
          +0.001*[#   9]+0.001*[#  12]+0.001*[#  13]+
    |psi|^2 = 0.974
==== e(  14) =    22.61228 eV ==== 
     psi = 
    |psi|^2 = 0.003
==== e(  15) =    22.66947 eV ==== 
     psi = 0.081*[#   2]+0.012*[#   6]+0.012*[#  10]+0.008*[#   7]+0.008*[#  11]+
          +0.002*[#   8]+0.002*[#   9]+0.002*[#  12]+0.002*[#  13]+
    |psi|^2 = 0.130
==== e(  16) =    22.78152 eV ==== 
     psi = 0.015*[#   2]+0.011*[#   7]+0.011*[#  11]+0.003*[#   6]+0.003*[#  10]+
    |psi|^2 = 0.045

 k =   0.0000000000  0.0481125224  0.2537171211
==== e(   1) =   -65.98140 eV ==== 
     psi = 0.938*[#   1]+0.028*[#   7]+0.028*[#  11]+0.003*[#   6]+0.003*[#  10]+
    |psi|^2 = 1.000
==== e(   2) =   -32.72486 eV ==== 
     psi = 0.500*[#   4]+0.500*[#   5]+
    |psi|^2 = 1.000
==== e(   3) =   -32.72428 eV ==== 
     psi = 0.500*[#   4]+0.500*[#   5]+
    |psi|^2 = 1.000
==== e(   4) =   -32.71768 eV ==== 
     psi = 0.993*[#   3]+0.002*[#   6]+0.002*[#  10]+0.001*[#   7]+0.001*[#  11]+
    |psi|^2 = 1.000
==== e(   5) =    -2.63987 eV ==== 
     psi = 0.358*[#   6]+0.358*[#  10]+0.223*[#   2]+0.016*[#   7]+0.016*[#  11]+
          +0.014*[#   1]+0.003*[#   3]+0.003*[#   8]+0.003*[#   9]+0.003*[#  12]+
          +0.003*[#  13]+
    |psi|^2 = 0.999
==== e(   6) =     3.09935 eV ==== 
     psi = 0.356*[#   7]+0.356*[#  11]+0.104*[#   2]+0.070*[#   6]+0.070*[#  10]+
          +0.034*[#   1]+0.003*[#   3]+
    |psi|^2 = 0.995
==== e(   7) =     9.60838 eV ==== 
     psi = 0.246*[#   8]+0.246*[#   9]+0.246*[#  12]+0.246*[#  13]+0.006*[#   6]+
          +0.006*[#  10]+
    |psi|^2 = 0.995
==== e(   8) =     9.68272 eV ==== 
     psi = 0.249*[#   8]+0.249*[#   9]+0.249*[#  12]+0.249*[#  13]+
    |psi|^2 = 0.995
==== e(   9) =    15.47457 eV ==== 
     psi = 0.396*[#   2]+0.059*[#   7]+0.059*[#  11]+0.054*[#   8]+0.054*[#   9]+
          +0.054*[#  12]+0.054*[#  13]+0.021*[#   6]+0.021*[#  10]+0.010*[#   1]+
    |psi|^2 = 0.784
==== e(  10) =    15.85617 eV ==== 
     psi = 0.163*[#   8]+0.163*[#   9]+0.163*[#  12]+0.163*[#  13]+0.130*[#   2]+
          +0.033*[#   6]+0.033*[#  10]+0.021*[#   7]+0.021*[#  11]+0.002*[#   1]+
    |psi|^2 = 0.891
==== e(  11) =    15.91297 eV ==== 
     psi = 0.222*[#   8]+0.222*[#   9]+0.222*[#  12]+0.222*[#  13]+
    |psi|^2 = 0.888
==== e(  12) =    17.22046 eV ==== 
     psi = 0.338*[#   7]+0.338*[#  11]+0.110*[#   6]+0.110*[#  10]+0.002*[#   8]+
          +0.002*[#   9]+0.002*[#  12]+0.002*[#  13]+
    |psi|^2 = 0.903
==== e(  13) =    19.28733 eV ==== 
     psi = 0.358*[#   6]+0.358*[#  10]+0.125*[#   7]+0.125*[#  11]+0.002*[#   8]+
          +0.002*[#   9]+0.002*[#  12]+0.002*[#  13]+
    |psi|^2 = 0.973
==== e(  14) =    22.18937 eV ==== 
     psi = 
    |psi|^2 = 0.002
==== e(  15) =    22.36141 eV ==== 
     psi = 0.015*[#   7]+0.015*[#  11]+0.002*[#   2]+
    |psi|^2 = 0.035
==== e(  16) =    22.83998 eV ==== 
     psi = 0.090*[#   2]+0.010*[#   6]+0.010*[#  10]+0.007*[#   7]+0.007*[#  11]+
          +0.002*[#   8]+0.002*[#   9]+0.002*[#  12]+0.002*[#  13]+0.001*[#   1]+
    |psi|^2 = 0.132

 k =   0.0000000000  0.0481125224  0.2899624241
==== e(   1) =   -65.98137 eV ==== 
     psi = 0.930*[#   1]+0.033*[#   7]+0.033*[#  11]+0.002*[#   6]+0.002*[#  10]+
    |psi|^2 = 1.000
==== e(   2) =   -32.72481 eV ==== 
     psi = 0.500*[#   4]+0.500*[#   5]+
    |psi|^2 = 1.000
==== e(   3) =   -32.72419 eV ==== 
     psi = 0.500*[#   4]+0.500*[#   5]+
    |psi|^2 = 1.000
==== e(   4) =   -32.71859 eV ==== 
     psi = 0.993*[#   3]+0.002*[#   6]+0.002*[#  10]+
    |psi|^2 = 1.000
==== e(   5) =    -2.47052 eV ==== 
     psi = 0.387*[#   6]+0.387*[#  10]+0.169*[#   2]+0.014*[#   7]+0.014*[#  11]+
          +0.011*[#   1]+0.004*[#   3]+0.003*[#   8]+0.003*[#   9]+0.003*[#  12]+
          +0.003*[#  13]+
    |psi|^2 = 0.999
==== e(   6) =     2.64838 eV ==== 
     psi = 0.350*[#   7]+0.350*[#  11]+0.132*[#   2]+0.060*[#   6]+0.060*[#  10]+
          +0.040*[#   1]+0.002*[#   3]+
    |psi|^2 = 0.996
==== e(   7) =     9.65584 eV ==== 
     psi = 0.246*[#   8]+0.246*[#   9]+0.246*[#  12]+0.246*[#  13]+0.006*[#   6]+
          +0.006*[#  10]+
    |psi|^2 = 0.995
==== e(   8) =     9.72776 eV ==== 
     psi = 0.249*[#   8]+0.249*[#   9]+0.249*[#  12]+0.249*[#  13]+
    |psi|^2 = 0.996
==== e(   9) =    15.78253 eV ==== 
     psi = 0.211*[#   8]+0.211*[#   9]+0.211*[#  12]+0.211*[#  13]+0.016*[#   2]+
          +0.003*[#   6]+0.003*[#  10]+0.002*[#   7]+0.002*[#  11]+0.001*[#   1]+
    |psi|^2 = 0.873
==== e(  10) =    15.95263 eV ==== 
     psi = 0.223*[#   8]+0.223*[#   9]+0.223*[#  12]+0.223*[#  13]+
    |psi|^2 = 0.891
==== e(  11) =    16.54011 eV ==== 
     psi = 0.525*[#   2]+0.078*[#   7]+0.078*[#  11]+0.036*[#   6]+0.036*[#  10]+
          +0.014*[#   1]+0.007*[#   8]+0.007*[#   9]+0.007*[#  12]+0.007*[#  13]+
    |psi|^2 = 0.794
==== e(  12) =    17.15177 eV ==== 
     psi = 0.380*[#   7]+0.380*[#  11]+0.069*[#   6]+0.069*[#  10]+0.001*[#   8]+
          +0.001*[#   9]+0.001*[#  12]+0.001*[#  13]+
    |psi|^2 = 0.904
==== e(  13) =    19.31517 eV ==== 
     psi = 0.404*[#   6]+0.404*[#  10]+0.078*[#   7]+0.078*[#  11]+0.002*[#   8]+
          +0.002*[#   9]+0.002*[#  12]+0.002*[#  13]+
    |psi|^2 = 0.973
==== e(  14) =    21.83243 eV ==== 
     psi = 
    |psi|^2 = 0.002
==== e(  15) =    22.03183 eV ==== 
     psi = 0.017*[#   7]+0.017*[#  11]+0.001*[#   2]+
    |psi|^2 = 0.037
==== e(  16) =    22.98502 eV ==== 
     psi = 0.080*[#   2]+0.007*[#   7]+0.007*[#  11]+0.006*[#   6]+0.006*[#  10]+
          +0.002*[#   8]+0.002*[#   9]+0.002*[#  12]+0.002*[#  13]+0.002*[#   1]+
    |psi|^2 = 0.114

 k =   0.0000000000  0.0481125224  0.3262077271
==== e(   1) =   -65.98134 eV ==== 
     psi = 0.923*[#   1]+0.037*[#   7]+0.037*[#  11]+0.001*[#   6]+0.001*[#  10]+
    |psi|^2 = 1.000
==== e(   2) =   -32.72473 eV ==== 
     psi = 0.500*[#   4]+0.500*[#   5]+
    |psi|^2 = 1.000
==== e(   3) =   -32.72416 eV ==== 
     psi = 0.500*[#   4]+0.500*[#   5]+
    |psi|^2 = 1.000
==== e(   4) =   -32.71941 eV ==== 
     psi = 0.993*[#   3]+0.003*[#   6]+0.003*[#  10]+
    |psi|^2 = 1.000
==== e(   5) =    -2.30676 eV ==== 
     psi = 0.420*[#   6]+0.420*[#  10]+0.111*[#   2]+0.011*[#   7]+0.011*[#  11]+
          +0.007*[#   1]+0.005*[#   3]+0.003*[#   8]+0.003*[#   9]+0.003*[#  12]+
          +0.003*[#  13]+
    |psi|^2 = 0.999
==== e(   6) =     2.26229 eV ==== 
     psi = 0.348*[#   7]+0.348*[#  11]+0.165*[#   2]+0.046*[#   1]+0.044*[#   6]+
          +0.044*[#  10]+0.001*[#   3]+
    |psi|^2 = 0.997
==== e(   7) =     9.69747 eV ==== 
     psi = 0.246*[#   8]+0.246*[#   9]+0.246*[#  12]+0.246*[#  13]+0.005*[#   6]+
          +0.005*[#  10]+
    |psi|^2 = 0.996
==== e(   8) =     9.76718 eV ==== 
     psi = 0.249*[#   8]+0.249*[#   9]+0.249*[#  12]+0.249*[#  13]+
    |psi|^2 = 0.996
==== e(   9) =    15.83927 eV ==== 
     psi = 0.218*[#   8]+0.218*[#   9]+0.218*[#  12]+0.218*[#  13]+0.006*[#   6]+
          +0.006*[#  10]+0.002*[#   2]+
    |psi|^2 = 0.887
==== e(  10) =    15.98748 eV ==== 
     psi = 0.223*[#   8]+0.223*[#   9]+0.223*[#  12]+0.223*[#  13]+
    |psi|^2 = 0.893
==== e(  11) =    17.09182 eV ==== 
     psi = 0.412*[#   7]+0.412*[#  11]+0.038*[#   6]+0.038*[#  10]+
    |psi|^2 = 0.904
==== e(  12) =    17.44032 eV ==== 
     psi = 0.558*[#   2]+0.080*[#   7]+0.080*[#  11]+0.020*[#   6]+0.020*[#  10]+
          +0.019*[#   1]+
    |psi|^2 = 0.780
==== e(  13) =    19.34081 eV ==== 
     psi = 0.439*[#   6]+0.439*[#  10]+0.043*[#   7]+0.043*[#  11]+0.002*[#   8]+
          +0.002*[#   9]+0.002*[#  12]+0.002*[#  13]+
    |psi|^2 = 0.974
==== e(  14) =    21.54799 eV ==== 
     psi = 
    |psi|^2 = 0.001
==== e(  15) =    21.76751 eV ==== 
     psi = 0.018*[#   7]+0.018*[#  11]+0.001*[#   2]+
    |psi|^2 = 0.039
==== e(  16) =    23.12547 eV ==== 
     psi = 0.059*[#   2]+0.005*[#   7]+0.005*[#  11]+0.003*[#   6]+0.003*[#  10]+
          +0.001*[#   1]+0.001*[#   8]+0.001*[#   9]+0.001*[#  12]+0.001*[#  13]+
    |psi|^2 = 0.083

 k =   0.0000000000  0.0481125224  0.3624530301
==== e(   1) =   -65.98134 eV ==== 
     psi = 0.917*[#   1]+0.040*[#   7]+0.040*[#  11]+0.001*[#   2]+
    |psi|^2 = 1.000
==== e(   2) =   -32.72471 eV ==== 
     psi = 0.500*[#   4]+0.500*[#   5]+
    |psi|^2 = 1.000
==== e(   3) =   -32.72413 eV ==== 
     psi = 0.500*[#   4]+0.500*[#   5]+
    |psi|^2 = 1.000
==== e(   4) =   -32.72006 eV ==== 
     psi = 0.993*[#   3]+0.003*[#   6]+0.003*[#  10]+
    |psi|^2 = 1.000
==== e(   5) =    -2.16575 eV ==== 
     psi = 0.453*[#   6]+0.453*[#  10]+0.057*[#   2]+0.006*[#   7]+0.006*[#  11]+
          +0.006*[#   3]+0.004*[#   1]+0.003*[#   8]+0.003*[#   9]+0.003*[#  12]+
          +0.003*[#  13]+
    |psi|^2 = 0.999
==== e(   6) =     1.96088 eV ==== 
     psi = 0.348*[#   7]+0.348*[#  11]+0.201*[#   2]+0.050*[#   1]+0.024*[#   6]+
          +0.024*[#  10]+
    |psi|^2 = 0.997
==== e(   7) =     9.72998 eV ==== 
     psi = 0.246*[#   8]+0.246*[#   9]+0.246*[#  12]+0.246*[#  13]+0.005*[#   6]+
          +0.005*[#  10]+
    |psi|^2 = 0.997
==== e(   8) =     9.79792 eV ==== 
     psi = 0.249*[#   8]+0.249*[#   9]+0.249*[#  12]+0.249*[#  13]+
    |psi|^2 = 0.997
==== e(   9) =    15.87432 eV ==== 
     psi = 0.219*[#   8]+0.219*[#   9]+0.219*[#  12]+0.219*[#  13]+0.007*[#   6]+
          +0.007*[#  10]+
    |psi|^2 = 0.892
==== e(  10) =    16.01479 eV ==== 
     psi = 0.224*[#   8]+0.224*[#   9]+0.224*[#  12]+0.224*[#  13]+
    |psi|^2 = 0.895
==== e(  11) =    17.04514 eV ==== 
     psi = 0.434*[#   7]+0.434*[#  11]+0.017*[#   6]+0.017*[#  10]+
    |psi|^2 = 0.903
==== e(  12) =    18.26069 eV ==== 
     psi = 0.584*[#   2]+0.082*[#   7]+0.082*[#  11]+0.022*[#   1]+0.009*[#   6]+
          +0.009*[#  10]+
    |psi|^2 = 0.789
==== e(  13) =    19.36198 eV ==== 
     psi = 0.464*[#   6]+0.464*[#  10]+0.019*[#   7]+0.019*[#  11]+0.003*[#   8]+
          +0.003*[#   9]+0.003*[#  12]+0.003*[#  13]+
    |psi|^2 = 0.976
==== e(  14) =    21.34104 eV ==== 
     psi = 
    |psi|^2 = 0.000
==== e(  15) =    21.57442 eV ==== 
     psi = 0.019*[#   7]+0.019*[#  11]+
    |psi|^2 = 0.039
==== e(  16) =    23.24665 eV ==== 
     psi = 0.033*[#   2]+0.003*[#   7]+0.003*[#  11]+0.001*[#   6]+0.001*[#   8]+
          +0.001*[#   9]+0.001*[#  10]+0.001*[#  12]+0.001*[#  13]+
    |psi|^2 = 0.047

 k =   0.0000000000  0.0481125224  0.3986983331
==== e(   1) =   -65.98133 eV ==== 
     psi = 0.914*[#   1]+0.042*[#   7]+0.042*[#  11]+0.002*[#   2]+
    |psi|^2 = 1.000
==== e(   2) =   -32.72469 eV ==== 
     psi = 0.500*[#   4]+0.500*[#   5]+
    |psi|^2 = 1.000
==== e(   3) =   -32.72411 eV ==== 
     psi = 0.500*[#   4]+0.500*[#   5]+
    |psi|^2 = 1.000
==== e(   4) =   -32.72045 eV ==== 
     psi = 0.993*[#   3]+0.003*[#   6]+0.003*[#  10]+
    |psi|^2 = 1.000
==== e(   5) =    -2.06818 eV ==== 
     psi = 0.479*[#   6]+0.479*[#  10]+0.016*[#   2]+0.006*[#   3]+0.003*[#   8]+
          +0.003*[#   9]+0.003*[#  12]+0.003*[#  13]+0.002*[#   7]+0.002*[#  11]+
    |psi|^2 = 0.998
==== e(   6) =     1.76652 eV ==== 
     psi = 0.350*[#   7]+0.350*[#  11]+0.229*[#   2]+0.054*[#   1]+0.007*[#   6]+
          +0.007*[#  10]+
    |psi|^2 = 0.997
==== e(   7) =     9.75069 eV ==== 
     psi = 0.247*[#   8]+0.247*[#   9]+0.247*[#  12]+0.247*[#  13]+0.005*[#   6]+
          +0.005*[#  10]+
    |psi|^2 = 0.997
==== e(   8) =     9.81747 eV ==== 
     psi = 0.249*[#   8]+0.249*[#   9]+0.249*[#  12]+0.249*[#  13]+
    |psi|^2 = 0.997
==== e(   9) =    15.89546 eV ==== 
     psi = 0.220*[#   8]+0.220*[#   9]+0.220*[#  12]+0.220*[#  13]+0.007*[#   6]+
          +0.007*[#  10]+
    |psi|^2 = 0.894
==== e(  10) =    16.03223 eV ==== 
     psi = 0.224*[#   8]+0.224*[#   9]+0.224*[#  12]+0.224*[#  13]+
    |psi|^2 = 0.897
==== e(  11) =    17.01545 eV ==== 
     psi = 0.447*[#   7]+0.447*[#  11]+0.004*[#   6]+0.004*[#  10]+
    |psi|^2 = 0.903
==== e(  12) =    18.87487 eV ==== 
     psi = 0.612*[#   2]+0.084*[#   7]+0.084*[#  11]+0.025*[#   1]+0.002*[#   6]+
          +0.002*[#  10]+
    |psi|^2 = 0.811
==== e(  13) =    19.37613 eV ==== 
     psi = 0.479*[#   6]+0.479*[#  10]+0.005*[#   7]+0.005*[#  11]+0.003*[#   8]+
          +0.003*[#   9]+0.003*[#  12]+0.003*[#  13]+
    |psi|^2 = 0.978
==== e(  14) =    21.21531 eV ==== 
     psi = 
    |psi|^2 = 0.000
==== e(  15) =    21.45674 eV ==== 
     psi = 0.019*[#   7]+0.019*[#  11]+
    |psi|^2 = 0.039
==== e(  16) =    23.33123 eV ==== 
     psi = 0.009*[#   2]+
    |psi|^2 = 0.016

 k =   0.0000000000  0.0481125224 -0.4349436361
==== e(   1) =   -65.98133 eV ==== 
     psi = 0.912*[#   1]+0.043*[#   7]+0.043*[#  11]+0.002*[#   2]+
    |psi|^2 = 1.000
==== e(   2) =   -32.72469 eV ==== 
     psi = 0.500*[#   4]+0.500*[#   5]+
    |psi|^2 = 1.000
==== e(   3) =   -32.72409 eV ==== 
     psi = 0.500*[#   4]+0.500*[#   5]+
    |psi|^2 = 1.000
==== e(   4) =   -32.72058 eV ==== 
     psi = 0.994*[#   3]+0.003*[#   6]+0.003*[#  10]+
    |psi|^2 = 1.000
==== e(   5) =    -2.03300 eV ==== 
     psi = 0.489*[#   6]+0.489*[#  10]+0.006*[#   3]+0.004*[#   8]+0.004*[#   9]+
          +0.004*[#  12]+0.004*[#  13]+
    |psi|^2 = 0.998
==== e(   6) =     1.69899 eV ==== 
     psi = 0.351*[#   7]+0.351*[#  11]+0.241*[#   2]+0.055*[#   1]+
    |psi|^2 = 0.998
==== e(   7) =     9.75780 eV ==== 
     psi = 0.247*[#   8]+0.247*[#   9]+0.247*[#  12]+0.247*[#  13]+0.005*[#   6]+
          +0.005*[#  10]+
    |psi|^2 = 0.997
==== e(   8) =     9.82417 eV ==== 
     psi = 0.249*[#   8]+0.249*[#   9]+0.249*[#  12]+0.249*[#  13]+
    |psi|^2 = 0.997
==== e(   9) =    15.90262 eV ==== 
     psi = 0.220*[#   8]+0.220*[#   9]+0.220*[#  12]+0.220*[#  13]+0.007*[#   6]+
          +0.007*[#  10]+
    |psi|^2 = 0.895
==== e(  10) =    16.03822 eV ==== 
     psi = 0.224*[#   8]+0.224*[#   9]+0.224*[#  12]+0.224*[#  13]+
    |psi|^2 = 0.897
==== e(  11) =    17.00526 eV ==== 
     psi = 0.451*[#   7]+0.451*[#  11]+
    |psi|^2 = 0.902
==== e(  12) =    19.11232 eV ==== 
     psi = 0.627*[#   2]+0.086*[#   7]+0.086*[#  11]+0.027*[#   1]+
    |psi|^2 = 0.825
==== e(  13) =    19.38113 eV ==== 
     psi = 0.484*[#   6]+0.484*[#  10]+0.003*[#   8]+0.003*[#   9]+0.003*[#  12]+
          +0.003*[#  13]+
    |psi|^2 = 0.979
==== e(  14) =    21.17317 eV ==== 
     psi = 
    |psi|^2 = 0.000
==== e(  15) =    21.41723 eV ==== 
     psi = 0.019*[#   7]+0.019*[#  11]+
    |psi|^2 = 0.039
==== e(  16) =    23.36167 eV ==== 
     psi = 
    |psi|^2 = 0.004

 k =   0.0000000000  0.0962250449  0.0000000000
==== e(   1) =   -65.98141 eV ==== 
     psi = 0.971*[#   1]+0.012*[#   2]+0.005*[#   6]+0.005*[#  10]+0.002*[#   8]+
          +0.002*[#   9]+0.002*[#  12]+0.002*[#  13]+
    |psi|^2 = 1.000
==== e(   2) =   -32.72734 eV ==== 
     psi = 0.499*[#   4]+0.499*[#   5]+
    |psi|^2 = 1.000
==== e(   3) =   -32.72520 eV ==== 
     psi = 0.499*[#   4]+0.499*[#   5]+
    |psi|^2 = 1.000
==== e(   4) =   -32.71262 eV ==== 
     psi = 0.994*[#   3]+0.003*[#   7]+0.003*[#  11]+
    |psi|^2 = 1.000
==== e(   5) =    -3.21946 eV ==== 
     psi = 0.387*[#   2]+0.274*[#   6]+0.274*[#  10]+0.026*[#   1]+0.010*[#   8]+
          +0.010*[#   9]+0.010*[#  12]+0.010*[#  13]+
    |psi|^2 = 0.999
==== e(   6) =     6.25740 eV ==== 
     psi = 0.492*[#   7]+0.492*[#  11]+0.006*[#   3]+
    |psi|^2 = 0.991
==== e(   7) =     8.92621 eV ==== 
     psi = 0.235*[#   8]+0.235*[#   9]+0.235*[#  12]+0.235*[#  13]+0.024*[#   6]+
          +0.024*[#  10]+0.001*[#   2]+
    |psi|^2 = 0.990
==== e(   8) =     9.25096 eV ==== 
     psi = 0.248*[#   8]+0.248*[#   9]+0.248*[#  12]+0.248*[#  13]+
    |psi|^2 = 0.993
==== e(   9) =    10.86457 eV ==== 
     psi = 0.513*[#   2]+0.158*[#   6]+0.158*[#  10]+0.007*[#   8]+0.007*[#   9]+
          +0.007*[#  12]+0.007*[#  13]+
    |psi|^2 = 0.856
==== e(  10) =    15.50328 eV ==== 
     psi = 0.186*[#   8]+0.186*[#   9]+0.186*[#  12]+0.186*[#  13]+0.057*[#   6]+
          +0.057*[#  10]+0.004*[#   2]+0.002*[#   1]+
    |psi|^2 = 0.866
==== e(  11) =    16.11681 eV ==== 
     psi = 0.218*[#   8]+0.218*[#   9]+0.218*[#  12]+0.218*[#  13]+
    |psi|^2 = 0.871
==== e(  12) =    17.75982 eV ==== 
     psi = 0.395*[#   6]+0.395*[#  10]+0.019*[#   8]+0.019*[#   9]+0.019*[#  12]+
          +0.019*[#  13]+
    |psi|^2 = 0.864
==== e(  13) =    18.82588 eV ==== 
     psi = 0.487*[#   7]+0.487*[#  11]+
    |psi|^2 = 0.974
==== e(  14) =    22.67763 eV ==== 
     psi = 0.079*[#   2]+0.017*[#   6]+0.017*[#  10]+0.010*[#   8]+0.010*[#   9]+
          +0.010*[#  12]+0.010*[#  13]+
    |psi|^2 = 0.155
==== e(  15) =    24.85969 eV ==== 
     psi = 0.020*[#   6]+0.020*[#  10]+0.001*[#   8]+0.001*[#   9]+0.001*[#  12]+
          +0.001*[#  13]+
    |psi|^2 = 0.045
==== e(  16) =    25.15185 eV ==== 
     psi = 0.002*[#   8]+0.002*[#   9]+0.002*[#  12]+0.002*[#  13]+
    |psi|^2 = 0.008

 k =   0.0000000000  0.0962250449  0.0362453030
==== e(   1) =   -65.98141 eV ==== 
     psi = 0.970*[#   1]+0.012*[#   2]+0.005*[#   6]+0.005*[#  10]+0.002*[#   8]+
          +0.002*[#   9]+0.002*[#  12]+0.002*[#  13]+
    |psi|^2 = 1.000
==== e(   2) =   -32.72734 eV ==== 
     psi = 0.499*[#   4]+0.499*[#   5]+
    |psi|^2 = 1.000
==== e(   3) =   -32.72517 eV ==== 
     psi = 0.499*[#   4]+0.499*[#   5]+
    |psi|^2 = 1.000
==== e(   4) =   -32.71278 eV ==== 
     psi = 0.994*[#   3]+0.003*[#   7]+0.003*[#  11]+
    |psi|^2 = 1.000
==== e(   5) =    -3.20446 eV ==== 
     psi = 0.383*[#   2]+0.275*[#   6]+0.275*[#  10]+0.026*[#   1]+0.010*[#   8]+
          +0.010*[#   9]+0.010*[#  12]+0.010*[#  13]+
    |psi|^2 = 0.999
==== e(   6) =     6.12485 eV ==== 
     psi = 0.479*[#   7]+0.479*[#  11]+0.008*[#   2]+0.008*[#   6]+0.008*[#  10]+
          +0.006*[#   3]+0.001*[#   1]+
    |psi|^2 = 0.991
==== e(   7) =     8.93293 eV ==== 
     psi = 0.235*[#   8]+0.235*[#   9]+0.235*[#  12]+0.235*[#  13]+0.024*[#   6]+
          +0.024*[#  10]+
    |psi|^2 = 0.991
==== e(   8) =     9.25654 eV ==== 
     psi = 0.248*[#   8]+0.248*[#   9]+0.248*[#  12]+0.248*[#  13]+
    |psi|^2 = 0.993
==== e(   9) =    11.03145 eV ==== 
     psi = 0.507*[#   2]+0.149*[#   6]+0.149*[#  10]+0.011*[#   7]+0.011*[#  11]+
          +0.006*[#   8]+0.006*[#   9]+0.006*[#  12]+0.006*[#  13]+
    |psi|^2 = 0.854
==== e(  10) =    15.51034 eV ==== 
     psi = 0.186*[#   8]+0.186*[#   9]+0.186*[#  12]+0.186*[#  13]+0.057*[#   6]+
          +0.057*[#  10]+0.005*[#   2]+0.002*[#   1]+
    |psi|^2 = 0.867
==== e(  11) =    16.12191 eV ==== 
     psi = 0.218*[#   8]+0.218*[#   9]+0.218*[#  12]+0.218*[#  13]+
    |psi|^2 = 0.872
==== e(  12) =    17.72535 eV ==== 
     psi = 0.368*[#   6]+0.368*[#  10]+0.028*[#   7]+0.028*[#  11]+0.018*[#   8]+
          +0.018*[#   9]+0.018*[#  12]+0.018*[#  13]+
    |psi|^2 = 0.865
==== e(  13) =    18.84862 eV ==== 
     psi = 0.457*[#   7]+0.457*[#  11]+0.028*[#   6]+0.028*[#  10]+
    |psi|^2 = 0.972
==== e(  14) =    22.68943 eV ==== 
     psi = 0.080*[#   2]+0.017*[#   6]+0.017*[#  10]+0.010*[#   8]+0.010*[#   9]+
          +0.010*[#  12]+0.010*[#  13]+
    |psi|^2 = 0.155
==== e(  15) =    24.69671 eV ==== 
     psi = 0.017*[#   6]+0.017*[#  10]+0.003*[#   7]+0.003*[#  11]+0.001*[#   8]+
          +0.001*[#   9]+0.001*[#  12]+0.001*[#  13]+
    |psi|^2 = 0.045
==== e(  16) =    24.91233 eV ==== 
     psi = 0.002*[#   8]+0.002*[#   9]+0.002*[#  12]+0.002*[#  13]+
    |psi|^2 = 0.008

 k =   0.0000000000  0.0962250449  0.0724906060
==== e(   1) =   -65.98140 eV ==== 
     psi = 0.968*[#   1]+0.010*[#   2]+0.005*[#   6]+0.005*[#  10]+0.003*[#   7]+
          +0.003*[#  11]+0.002*[#   8]+0.002*[#   9]+0.002*[#  12]+0.002*[#  13]+
    |psi|^2 = 1.000
==== e(   2) =   -32.72732 eV ==== 
     psi = 0.499*[#   4]+0.499*[#   5]+
    |psi|^2 = 1.000
==== e(   3) =   -32.72517 eV ==== 
     psi = 0.500*[#   4]+0.500*[#   5]+
    |psi|^2 = 1.000
==== e(   4) =   -32.71316 eV ==== 
     psi = 0.994*[#   3]+0.003*[#   7]+0.003*[#  11]+
    |psi|^2 = 1.000
==== e(   5) =    -3.15973 eV ==== 
     psi = 0.372*[#   2]+0.278*[#   6]+0.278*[#  10]+0.025*[#   1]+0.010*[#   8]+
          +0.010*[#   9]+0.010*[#  12]+0.010*[#  13]+0.003*[#   7]+0.003*[#  11]+
    |psi|^2 = 0.999
==== e(   6) =     5.77535 eV ==== 
     psi = 0.451*[#   7]+0.451*[#  11]+0.025*[#   2]+0.025*[#   6]+0.025*[#  10]+
          +0.006*[#   3]+0.004*[#   1]+
    |psi|^2 = 0.990
==== e(   7) =     8.95247 eV ==== 
     psi = 0.236*[#   8]+0.236*[#   9]+0.236*[#  12]+0.236*[#  13]+0.024*[#   6]+
          +0.024*[#  10]+
    |psi|^2 = 0.991
==== e(   8) =     9.27295 eV ==== 
     psi = 0.248*[#   8]+0.248*[#   9]+0.248*[#  12]+0.248*[#  13]+
    |psi|^2 = 0.993
==== e(   9) =    11.48416 eV ==== 
     psi = 0.497*[#   2]+0.128*[#   6]+0.128*[#  10]+0.034*[#   7]+0.034*[#  11]+
          +0.006*[#   8]+0.006*[#   9]+0.006*[#  12]+0.006*[#  13]+
    |psi|^2 = 0.848
==== e(  10) =    15.53144 eV ==== 
     psi = 0.186*[#   8]+0.186*[#   9]+0.186*[#  12]+0.186*[#  13]+0.057*[#   6]+
          +0.057*[#  10]+0.006*[#   2]+0.002*[#   1]+
    |psi|^2 = 0.869
==== e(  11) =    16.13683 eV ==== 
     psi = 0.218*[#   8]+0.218*[#   9]+0.218*[#  12]+0.218*[#  13]+
    |psi|^2 = 0.873
==== e(  12) =    17.63060 eV ==== 
     psi = 0.307*[#   6]+0.307*[#  10]+0.095*[#   7]+0.095*[#  11]+0.016*[#   8]+
          +0.016*[#   9]+0.016*[#  12]+0.016*[#  13]+
    |psi|^2 = 0.868
==== e(  13) =    18.90904 eV ==== 
     psi = 0.385*[#   7]+0.385*[#  11]+0.094*[#   6]+0.094*[#  10]+0.002*[#   8]+
          +0.002*[#   9]+0.002*[#  12]+0.002*[#  13]+
    |psi|^2 = 0.968
==== e(  14) =    22.72434 eV ==== 
     psi = 0.083*[#   2]+0.016*[#   6]+0.016*[#  10]+0.010*[#   8]+0.010*[#   9]+
          +0.010*[#  12]+0.010*[#  13]+
    |psi|^2 = 0.158
==== e(  15) =    24.32676 eV ==== 
     psi = 0.012*[#   6]+0.012*[#  10]+0.009*[#   7]+0.009*[#  11]+0.001*[#   8]+
          +0.001*[#   9]+0.001*[#  12]+0.001*[#  13]+
    |psi|^2 = 0.047
==== e(  16) =    24.40036 eV ==== 
     psi = 0.002*[#   8]+0.002*[#   9]+0.002*[#  12]+0.002*[#  13]+
    |psi|^2 = 0.007

 k =   0.0000000000  0.0962250449  0.1087359090
==== e(   1) =   -65.98138 eV ==== 
     psi = 0.964*[#   1]+0.008*[#   2]+0.006*[#   7]+0.006*[#  11]+0.005*[#   6]+
          +0.005*[#  10]+0.001*[#   8]+0.001*[#   9]+0.001*[#  12]+0.001*[#  13]+
    |psi|^2 = 1.000
==== e(   2) =   -32.72726 eV ==== 
     psi = 0.499*[#   4]+0.499*[#   5]+
    |psi|^2 = 1.000
==== e(   3) =   -32.72511 eV ==== 
     psi = 0.500*[#   4]+0.500*[#   5]+
    |psi|^2 = 1.000
==== e(   4) =   -32.71374 eV ==== 
     psi = 0.993*[#   3]+0.003*[#   7]+0.003*[#  11]+
    |psi|^2 = 1.000
==== e(   5) =    -3.08615 eV ==== 
     psi = 0.354*[#   2]+0.285*[#   6]+0.285*[#  10]+0.024*[#   1]+0.010*[#   8]+
          +0.010*[#   9]+0.010*[#  12]+0.010*[#  13]+0.006*[#   7]+0.006*[#  11]+
    |psi|^2 = 0.999
==== e(   6) =     5.29958 eV ==== 
     psi = 0.423*[#   7]+0.423*[#  11]+0.043*[#   6]+0.043*[#  10]+0.042*[#   2]+
          +0.009*[#   1]+0.005*[#   3]+
    |psi|^2 = 0.990
==== e(   7) =     8.98353 eV ==== 
     psi = 0.236*[#   8]+0.236*[#   9]+0.236*[#  12]+0.236*[#  13]+0.023*[#   6]+
          +0.023*[#  10]+
    |psi|^2 = 0.991
==== e(   8) =     9.29933 eV ==== 
     psi = 0.248*[#   8]+0.248*[#   9]+0.248*[#  12]+0.248*[#  13]+
    |psi|^2 = 0.993
==== e(   9) =    12.13164 eV ==== 
     psi = 0.492*[#   2]+0.105*[#   6]+0.105*[#  10]+0.054*[#   7]+0.054*[#  11]+
          +0.007*[#   8]+0.007*[#   9]+0.007*[#  12]+0.007*[#  13]+
    |psi|^2 = 0.838
==== e(  10) =    15.56622 eV ==== 
     psi = 0.186*[#   8]+0.186*[#   9]+0.186*[#  12]+0.186*[#  13]+0.057*[#   6]+
          +0.057*[#  10]+0.008*[#   2]+0.002*[#   7]+0.002*[#  11]+0.002*[#   1]+
    |psi|^2 = 0.873
==== e(  11) =    16.16095 eV ==== 
     psi = 0.218*[#   8]+0.218*[#   9]+0.218*[#  12]+0.218*[#  13]+
    |psi|^2 = 0.874
==== e(  12) =    17.49346 eV ==== 
     psi = 0.237*[#   6]+0.237*[#  10]+0.170*[#   7]+0.170*[#  11]+0.014*[#   8]+
          +0.014*[#   9]+0.014*[#  12]+0.014*[#  13]+
    |psi|^2 = 0.870
==== e(  13) =    18.99167 eV ==== 
     psi = 0.303*[#   7]+0.303*[#  11]+0.171*[#   6]+0.171*[#  10]+0.004*[#   8]+
          +0.004*[#   9]+0.004*[#  12]+0.004*[#  13]+
    |psi|^2 = 0.963
==== e(  14) =    22.77950 eV ==== 
     psi = 0.087*[#   2]+0.015*[#   6]+0.015*[#  10]+0.010*[#   8]+0.010*[#   9]+
          +0.010*[#  12]+0.010*[#  13]+0.002*[#   7]+0.002*[#  11]+
    |psi|^2 = 0.161
==== e(  15) =    23.82344 eV ==== 
     psi = 0.001*[#   8]+0.001*[#   9]+0.001*[#  12]+0.001*[#  13]+
    |psi|^2 = 0.006
==== e(  16) =    23.89260 eV ==== 
     psi = 0.016*[#   7]+0.016*[#  11]+0.008*[#   6]+0.008*[#  10]+
    |psi|^2 = 0.051

 k =   0.0000000000  0.0962250449  0.1449812120
==== e(   1) =   -65.98134 eV ==== 
     psi = 0.959*[#   1]+0.011*[#   7]+0.011*[#  11]+0.005*[#   2]+0.004*[#   6]+
          +0.004*[#  10]+0.001*[#   8]+0.001*[#   9]+0.001*[#  12]+0.001*[#  13]+
    |psi|^2 = 1.000
==== e(   2) =   -32.72720 eV ==== 
     psi = 0.499*[#   4]+0.499*[#   5]+
    |psi|^2 = 1.000
==== e(   3) =   -32.72504 eV ==== 
     psi = 0.500*[#   4]+0.500*[#   5]+
    |psi|^2 = 1.000
==== e(   4) =   -32.71450 eV ==== 
     psi = 0.993*[#   3]+0.002*[#   7]+0.002*[#  11]+
    |psi|^2 = 1.000
==== e(   5) =    -2.98532 eV ==== 
     psi = 0.328*[#   2]+0.295*[#   6]+0.295*[#  10]+0.022*[#   1]+0.010*[#   8]+
          +0.010*[#   9]+0.010*[#  12]+0.010*[#  13]+0.009*[#   7]+0.009*[#  11]+
          +0.001*[#   3]+
    |psi|^2 = 0.999
==== e(   6) =     4.76836 eV ==== 
     psi = 0.399*[#   7]+0.399*[#  11]+0.056*[#   6]+0.056*[#  10]+0.056*[#   2]+
          +0.014*[#   1]+0.005*[#   3]+0.001*[#   8]+0.001*[#   9]+0.001*[#  12]+
          +0.001*[#  13]+
    |psi|^2 = 0.991
==== e(   7) =     9.02444 eV ==== 
     psi = 0.236*[#   8]+0.236*[#   9]+0.236*[#  12]+0.236*[#  13]+0.023*[#   6]+
          +0.023*[#  10]+
    |psi|^2 = 0.992
==== e(   8) =     9.33417 eV ==== 
     psi = 0.248*[#   8]+0.248*[#   9]+0.248*[#  12]+0.248*[#  13]+
    |psi|^2 = 0.993
==== e(   9) =    12.90121 eV ==== 
     psi = 0.491*[#   2]+0.081*[#   6]+0.081*[#  10]+0.066*[#   7]+0.066*[#  11]+
          +0.008*[#   8]+0.008*[#   9]+0.008*[#  12]+0.008*[#  13]+0.003*[#   1]+
    |psi|^2 = 0.822
==== e(  10) =    15.61444 eV ==== 
     psi = 0.185*[#   8]+0.185*[#   9]+0.185*[#  12]+0.185*[#  13]+0.058*[#   6]+
          +0.058*[#  10]+0.012*[#   2]+0.004*[#   7]+0.004*[#  11]+0.001*[#   1]+
    |psi|^2 = 0.879
==== e(  11) =    16.19292 eV ==== 
     psi = 0.219*[#   8]+0.219*[#   9]+0.219*[#  12]+0.219*[#  13]+
    |psi|^2 = 0.876
==== e(  12) =    17.33056 eV ==== 
     psi = 0.236*[#   7]+0.236*[#  11]+0.174*[#   6]+0.174*[#  10]+0.012*[#   8]+
          +0.012*[#   9]+0.012*[#  12]+0.012*[#  13]+
    |psi|^2 = 0.869
==== e(  13) =    19.08373 eV ==== 
     psi = 0.242*[#   6]+0.242*[#  10]+0.226*[#   7]+0.226*[#  11]+0.006*[#   8]+
          +0.006*[#   9]+0.006*[#  12]+0.006*[#  13]+
    |psi|^2 = 0.960
==== e(  14) =    22.84533 eV ==== 
     psi = 0.091*[#   2]+0.013*[#   6]+0.013*[#  10]+0.010*[#   8]+0.010*[#   9]+
          +0.010*[#  12]+0.010*[#  13]+0.004*[#   7]+0.004*[#  11]+
    |psi|^2 = 0.166
==== e(  15) =    23.25497 eV ==== 
     psi = 0.001*[#   8]+0.001*[#   9]+0.001*[#  12]+0.001*[#  13]+
    |psi|^2 = 0.005
==== e(  16) =    23.46529 eV ==== 
     psi = 0.021*[#   7]+0.021*[#  11]+0.005*[#   6]+0.005*[#  10]+
    |psi|^2 = 0.055

 k =   0.0000000000  0.0962250449  0.1812265150
==== e(   1) =   -65.98130 eV ==== 
     psi = 0.953*[#   1]+0.016*[#   7]+0.016*[#  11]+0.004*[#   6]+0.004*[#  10]+
          +0.003*[#   2]+0.001*[#   8]+0.001*[#   9]+0.001*[#  12]+0.001*[#  13]+
    |psi|^2 = 1.000
==== e(   2) =   -32.72712 eV ==== 
     psi = 0.499*[#   4]+0.499*[#   5]+
    |psi|^2 = 1.000
==== e(   3) =   -32.72496 eV ==== 
     psi = 0.500*[#   4]+0.500*[#   5]+
    |psi|^2 = 1.000
==== e(   4) =   -32.71541 eV ==== 
     psi = 0.993*[#   3]+0.002*[#   7]+0.002*[#  11]+
    |psi|^2 = 1.000
==== e(   5) =    -2.85980 eV ==== 
     psi = 0.308*[#   6]+0.308*[#  10]+0.296*[#   2]+0.020*[#   1]+0.012*[#   7]+
          +0.012*[#  11]+0.010*[#   8]+0.010*[#   9]+0.010*[#  12]+0.010*[#  13]+
          +0.002*[#   3]+
    |psi|^2 = 0.999
==== e(   6) =     4.22480 eV ==== 
     psi = 0.381*[#   7]+0.381*[#  11]+0.071*[#   2]+0.065*[#   6]+0.065*[#  10]+
          +0.019*[#   1]+0.004*[#   3]+0.001*[#   8]+0.001*[#   9]+0.001*[#  12]+
          +0.001*[#  13]+
    |psi|^2 = 0.992
==== e(   7) =     9.07301 eV ==== 
     psi = 0.237*[#   8]+0.237*[#   9]+0.237*[#  12]+0.237*[#  13]+0.022*[#   6]+
          +0.022*[#  10]+
    |psi|^2 = 0.992
==== e(   8) =     9.37543 eV ==== 
     psi = 0.248*[#   8]+0.248*[#   9]+0.248*[#  12]+0.248*[#  13]+
    |psi|^2 = 0.994
==== e(   9) =    13.74488 eV ==== 
     psi = 0.489*[#   2]+0.072*[#   7]+0.072*[#  11]+0.058*[#   6]+0.058*[#  10]+
          +0.012*[#   8]+0.012*[#   9]+0.012*[#  12]+0.012*[#  13]+0.006*[#   1]+
    |psi|^2 = 0.801
==== e(  10) =    15.67772 eV ==== 
     psi = 0.183*[#   8]+0.183*[#   9]+0.183*[#  12]+0.183*[#  13]+0.060*[#   6]+
          +0.060*[#  10]+0.022*[#   2]+0.007*[#   7]+0.007*[#  11]+
    |psi|^2 = 0.888
==== e(  11) =    16.23095 eV ==== 
     psi = 0.219*[#   8]+0.219*[#   9]+0.219*[#  12]+0.219*[#  13]+
    |psi|^2 = 0.878
==== e(  12) =    17.15483 eV ==== 
     psi = 0.290*[#   7]+0.290*[#  11]+0.122*[#   6]+0.122*[#  10]+0.011*[#   8]+
          +0.011*[#   9]+0.011*[#  12]+0.011*[#  13]+
    |psi|^2 = 0.867
==== e(  13) =    19.17741 eV ==== 
     psi = 0.303*[#   6]+0.303*[#  10]+0.162*[#   7]+0.162*[#  11]+0.008*[#   8]+
          +0.008*[#   9]+0.008*[#  12]+0.008*[#  13]+
    |psi|^2 = 0.959
==== e(  14) =    22.72310 eV ==== 
     psi = 0.001*[#   8]+0.001*[#   9]+0.001*[#  12]+0.001*[#  13]+
    |psi|^2 = 0.004
==== e(  15) =    22.84929 eV ==== 
     psi = 0.070*[#   2]+0.016*[#   7]+0.016*[#  11]+0.008*[#   8]+0.008*[#   9]+
          +0.008*[#  12]+0.008*[#  13]+0.008*[#   6]+0.008*[#  10]+
    |psi|^2 = 0.152
==== e(  16) =    23.14250 eV ==== 
     psi = 0.026*[#   2]+0.018*[#   7]+0.018*[#  11]+0.005*[#   6]+0.005*[#  10]+
          +0.001*[#   8]+0.001*[#   9]+0.001*[#  12]+0.001*[#  13]+
    |psi|^2 = 0.078

 k =   0.0000000000  0.0962250449  0.2174718180
==== e(   1) =   -65.98126 eV ==== 
     psi = 0.946*[#   1]+0.022*[#   7]+0.022*[#  11]+0.003*[#   6]+0.003*[#  10]+
          +0.001*[#   2]+
    |psi|^2 = 1.000
==== e(   2) =   -32.72706 eV ==== 
     psi = 0.499*[#   4]+0.499*[#   5]+
    |psi|^2 = 1.000
==== e(   3) =   -32.72489 eV ==== 
     psi = 0.500*[#   4]+0.500*[#   5]+
    |psi|^2 = 1.000
==== e(   4) =   -32.71638 eV ==== 
     psi = 0.993*[#   3]+0.001*[#   7]+0.001*[#  11]+0.001*[#   6]+0.001*[#  10]+
    |psi|^2 = 1.000
==== e(   5) =    -2.71341 eV ==== 
     psi = 0.326*[#   6]+0.326*[#  10]+0.256*[#   2]+0.017*[#   1]+0.015*[#   7]+
          +0.015*[#  11]+0.010*[#   8]+0.010*[#   9]+0.010*[#  12]+0.010*[#  13]+
          +0.003*[#   3]+
    |psi|^2 = 0.999
==== e(   6) =     3.69516 eV ==== 
     psi = 0.367*[#   7]+0.367*[#  11]+0.087*[#   2]+0.068*[#   6]+0.068*[#  10]+
          +0.025*[#   1]+0.003*[#   3]+0.001*[#   8]+0.001*[#   9]+0.001*[#  12]+
          +0.001*[#  13]+
    |psi|^2 = 0.994
==== e(   7) =     9.12640 eV ==== 
     psi = 0.237*[#   8]+0.237*[#   9]+0.237*[#  12]+0.237*[#  13]+0.022*[#   6]+
          +0.022*[#  10]+
    |psi|^2 = 0.993
==== e(   8) =     9.42059 eV ==== 
     psi = 0.249*[#   8]+0.249*[#   9]+0.249*[#  12]+0.249*[#  13]+
    |psi|^2 = 0.994
==== e(   9) =    14.61915 eV ==== 
     psi = 0.466*[#   2]+0.069*[#   7]+0.069*[#  11]+0.034*[#   6]+0.034*[#  10]+
          +0.024*[#   8]+0.024*[#   9]+0.024*[#  12]+0.024*[#  13]+0.009*[#   1]+
    |psi|^2 = 0.775
==== e(  10) =    15.76843 eV ==== 
     psi = 0.172*[#   8]+0.172*[#   9]+0.172*[#  12]+0.172*[#  13]+0.065*[#   6]+
          +0.065*[#  10]+0.056*[#   2]+0.014*[#   7]+0.014*[#  11]+
    |psi|^2 = 0.900
==== e(  11) =    16.27281 eV ==== 
     psi = 0.220*[#   8]+0.220*[#   9]+0.220*[#  12]+0.220*[#  13]+
    |psi|^2 = 0.881
==== e(  12) =    16.97674 eV ==== 
     psi = 0.331*[#   7]+0.331*[#  11]+0.082*[#   6]+0.082*[#  10]+0.009*[#   8]+
          +0.009*[#   9]+0.009*[#  12]+0.009*[#  13]+
    |psi|^2 = 0.863
==== e(  13) =    19.26822 eV ==== 
     psi = 0.352*[#   6]+0.352*[#  10]+0.110*[#   7]+0.110*[#  11]+0.009*[#   8]+
          +0.009*[#   9]+0.009*[#  12]+0.009*[#  13]+
    |psi|^2 = 0.958
==== e(  14) =    22.24226 eV ==== 
     psi = 
    |psi|^2 = 0.004
==== e(  15) =    22.58386 eV ==== 
     psi = 0.033*[#   7]+0.033*[#  11]+0.023*[#   2]+0.003*[#   8]+0.003*[#   9]+
          +0.003*[#  12]+0.003*[#  13]+0.002*[#   6]+0.002*[#  10]+
[...]
          +0.026*[#   9]+0.026*[#  12]+0.026*[#  13]+
    |psi|^2 = 0.242
==== e(  13) =    20.33900 eV ==== 
     psi = 0.123*[#   2]+0.003*[#   1]+0.002*[#   8]+0.002*[#   9]+0.002*[#  12]+
          +0.002*[#  13]+
    |psi|^2 = 0.135
==== e(  14) =    22.05952 eV ==== 
     psi = 0.193*[#   6]+0.193*[#  10]+0.083*[#   8]+0.083*[#   9]+0.083*[#  12]+
          +0.083*[#  13]+0.004*[#   7]+0.004*[#  11]+
    |psi|^2 = 0.724
==== e(  15) =    22.05953 eV ==== 
     psi = 0.193*[#   6]+0.193*[#  10]+0.083*[#   8]+0.083*[#   9]+0.083*[#  12]+
          +0.083*[#  13]+0.004*[#   7]+0.004*[#  11]+
    |psi|^2 = 0.724
==== e(  16) =    24.37629 eV ==== 
     psi = 0.024*[#   2]+
    |psi|^2 = 0.026

 k =   0.3333333333  0.5773502692  0.2174718180
==== e(   1) =   -65.97738 eV ==== 
     psi = 0.968*[#   1]+0.016*[#   2]+0.004*[#   8]+0.004*[#   9]+0.004*[#  12]+
          +0.004*[#  13]+
    |psi|^2 = 1.000
==== e(   2) =   -32.75386 eV ==== 
     psi = 0.498*[#   4]+0.498*[#   5]+0.001*[#   7]+0.001*[#  11]+
    |psi|^2 = 1.000
==== e(   3) =   -32.75386 eV ==== 
     psi = 0.498*[#   4]+0.498*[#   5]+0.001*[#   7]+0.001*[#  11]+
    |psi|^2 = 1.000
==== e(   4) =   -32.70939 eV ==== 
     psi = 0.996*[#   3]+
    |psi|^2 = 1.000
==== e(   5) =     2.25275 eV ==== 
     psi = 0.236*[#   6]+0.236*[#  10]+0.125*[#   8]+0.125*[#   9]+0.125*[#  12]+
          +0.125*[#  13]+0.010*[#   7]+0.010*[#  11]+0.001*[#   4]+0.001*[#   5]+
    |psi|^2 = 0.994
==== e(   6) =     2.25276 eV ==== 
     psi = 0.236*[#   6]+0.236*[#  10]+0.125*[#   8]+0.125*[#   9]+0.125*[#  12]+
          +0.125*[#  13]+0.010*[#   7]+0.010*[#  11]+0.001*[#   4]+0.001*[#   5]+
    |psi|^2 = 0.994
==== e(   7) =     3.56002 eV ==== 
     psi = 0.234*[#   8]+0.234*[#   9]+0.234*[#  12]+0.234*[#  13]+0.050*[#   2]+
          +0.009*[#   1]+0.003*[#   3]+
    |psi|^2 = 0.998
==== e(   8) =     8.71247 eV ==== 
     psi = 0.446*[#   7]+0.446*[#  11]+0.004*[#   8]+0.004*[#   9]+0.004*[#  12]+
          +0.004*[#  13]+0.004*[#   6]+0.004*[#  10]+
    |psi|^2 = 0.918
==== e(   9) =     8.71249 eV ==== 
     psi = 0.446*[#   7]+0.446*[#  11]+0.004*[#   8]+0.004*[#   9]+0.004*[#  12]+
          +0.004*[#  13]+0.004*[#   6]+0.004*[#  10]+
    |psi|^2 = 0.918
==== e(  10) =    14.43340 eV ==== 
     psi = 0.809*[#   2]+0.020*[#   1]+0.009*[#   8]+0.009*[#   9]+0.009*[#  12]+
          +0.009*[#  13]+
    |psi|^2 = 0.864
==== e(  11) =    18.56883 eV ==== 
     psi = 0.055*[#   6]+0.055*[#  10]+0.032*[#   8]+0.032*[#   9]+0.032*[#  12]+
          +0.032*[#  13]+0.025*[#   7]+0.025*[#  11]+
    |psi|^2 = 0.290
==== e(  12) =    18.56884 eV ==== 
     psi = 0.055*[#   6]+0.055*[#  10]+0.032*[#   8]+0.032*[#   9]+0.032*[#  12]+
          +0.032*[#  13]+0.025*[#   7]+0.025*[#  11]+
    |psi|^2 = 0.290
==== e(  13) =    20.51307 eV ==== 
     psi = 0.084*[#   2]+0.002*[#   1]+0.001*[#   8]+0.001*[#   9]+0.001*[#  12]+
          +0.001*[#  13]+
    |psi|^2 = 0.092
==== e(  14) =    22.16201 eV ==== 
     psi = 0.178*[#   6]+0.178*[#  10]+0.078*[#   8]+0.078*[#   9]+0.078*[#  12]+
          +0.078*[#  13]+0.006*[#   7]+0.006*[#  11]+
    |psi|^2 = 0.680
==== e(  15) =    22.16202 eV ==== 
     psi = 0.178*[#   6]+0.178*[#  10]+0.078*[#   8]+0.078*[#   9]+0.078*[#  12]+
          +0.078*[#  13]+0.006*[#   7]+0.006*[#  11]+
    |psi|^2 = 0.680
==== e(  16) =    25.23051 eV ==== 
     psi = 0.020*[#   2]+
    |psi|^2 = 0.021

 k =   0.3333333333  0.5773502692  0.2537171211
==== e(   1) =   -65.97735 eV ==== 
     psi = 0.972*[#   1]+0.015*[#   2]+0.003*[#   8]+0.003*[#   9]+0.003*[#  12]+
          +0.003*[#  13]+
    |psi|^2 = 1.000
==== e(   2) =   -32.75377 eV ==== 
     psi = 0.498*[#   4]+0.498*[#   5]+0.002*[#   7]+0.002*[#  11]+
    |psi|^2 = 1.000
==== e(   3) =   -32.75376 eV ==== 
     psi = 0.498*[#   4]+0.498*[#   5]+0.002*[#   7]+0.002*[#  11]+
    |psi|^2 = 1.000
==== e(   4) =   -32.71027 eV ==== 
     psi = 0.996*[#   3]+0.001*[#   8]+0.001*[#   9]+0.001*[#  12]+0.001*[#  13]+
    |psi|^2 = 1.000
==== e(   5) =     2.36679 eV ==== 
     psi = 0.236*[#   6]+0.236*[#  10]+0.125*[#   8]+0.125*[#   9]+0.125*[#  12]+
          +0.125*[#  13]+0.010*[#   7]+0.010*[#  11]+0.001*[#   4]+0.001*[#   5]+
    |psi|^2 = 0.995
==== e(   6) =     2.36681 eV ==== 
     psi = 0.236*[#   6]+0.236*[#  10]+0.125*[#   8]+0.125*[#   9]+0.125*[#  12]+
          +0.125*[#  13]+0.010*[#   7]+0.010*[#  11]+0.001*[#   4]+0.001*[#   5]+
    |psi|^2 = 0.995
==== e(   7) =     3.64695 eV ==== 
     psi = 0.237*[#   8]+0.237*[#   9]+0.237*[#  12]+0.237*[#  13]+0.039*[#   2]+
          +0.007*[#   1]+0.004*[#   3]+
    |psi|^2 = 0.998
==== e(   8) =     8.28792 eV ==== 
     psi = 0.447*[#   7]+0.447*[#  11]+0.004*[#   6]+0.004*[#   8]+0.004*[#   9]+
          +0.004*[#  10]+0.004*[#  12]+0.004*[#  13]+0.001*[#   4]+0.001*[#   5]+
    |psi|^2 = 0.921
==== e(   9) =     8.28793 eV ==== 
     psi = 0.447*[#   7]+0.447*[#  11]+0.004*[#   6]+0.004*[#   8]+0.004*[#   9]+
          +0.004*[#  10]+0.004*[#  12]+0.004*[#  13]+0.001*[#   4]+0.001*[#   5]+
    |psi|^2 = 0.921
==== e(  10) =    13.96595 eV ==== 
     psi = 0.852*[#   2]+0.018*[#   1]+0.007*[#   8]+0.007*[#   9]+0.007*[#  12]+
          +0.007*[#  13]+
    |psi|^2 = 0.899
==== e(  11) =    19.30035 eV ==== 
     psi = 0.076*[#   6]+0.076*[#  10]+0.042*[#   8]+0.042*[#   9]+0.042*[#  12]+
          +0.042*[#  13]+0.021*[#   7]+0.021*[#  11]+
    |psi|^2 = 0.363
==== e(  12) =    19.30036 eV ==== 
     psi = 0.076*[#   6]+0.076*[#  10]+0.042*[#   8]+0.042*[#   9]+0.042*[#  12]+
          +0.042*[#  13]+0.021*[#   7]+0.021*[#  11]+
    |psi|^2 = 0.363
==== e(  13) =    20.64824 eV ==== 
     psi = 0.056*[#   2]+0.001*[#   1]+
    |psi|^2 = 0.060
==== e(  14) =    22.28842 eV ==== 
     psi = 0.157*[#   6]+0.157*[#  10]+0.069*[#   8]+0.069*[#   9]+0.069*[#  12]+
          +0.069*[#  13]+0.010*[#   7]+0.010*[#  11]+
    |psi|^2 = 0.610
==== e(  15) =    22.28843 eV ==== 
     psi = 0.157*[#   6]+0.157*[#  10]+0.069*[#   8]+0.069*[#   9]+0.069*[#  12]+
          +0.069*[#  13]+0.010*[#   7]+0.010*[#  11]+
    |psi|^2 = 0.610
==== e(  16) =    26.13889 eV ==== 
     psi = 0.014*[#   2]+
    |psi|^2 = 0.015

 k =   0.3333333333  0.5773502692  0.2899624241
==== e(   1) =   -65.97730 eV ==== 
     psi = 0.977*[#   1]+0.015*[#   2]+0.002*[#   8]+0.002*[#   9]+0.002*[#  12]+
          +0.002*[#  13]+
    |psi|^2 = 1.000
==== e(   2) =   -32.75364 eV ==== 
     psi = 0.498*[#   4]+0.498*[#   5]+0.002*[#   7]+0.002*[#  11]+
    |psi|^2 = 1.000
==== e(   3) =   -32.75364 eV ==== 
     psi = 0.498*[#   4]+0.498*[#   5]+0.002*[#   7]+0.002*[#  11]+
    |psi|^2 = 1.000
==== e(   4) =   -32.71104 eV ==== 
     psi = 0.995*[#   3]+0.001*[#   8]+0.001*[#   9]+0.001*[#  12]+0.001*[#  13]+
    |psi|^2 = 1.000
==== e(   5) =     2.48233 eV ==== 
     psi = 0.238*[#   6]+0.238*[#  10]+0.125*[#   8]+0.125*[#   9]+0.125*[#  12]+
          +0.125*[#  13]+0.009*[#   7]+0.009*[#  11]+
    |psi|^2 = 0.996
==== e(   6) =     2.48235 eV ==== 
     psi = 0.238*[#   6]+0.238*[#  10]+0.125*[#   8]+0.125*[#   9]+0.125*[#  12]+
          +0.125*[#  13]+0.009*[#   7]+0.009*[#  11]+
    |psi|^2 = 0.996
==== e(   7) =     3.73110 eV ==== 
     psi = 0.240*[#   8]+0.240*[#   9]+0.240*[#  12]+0.240*[#  13]+0.027*[#   2]+
          +0.005*[#   3]+0.005*[#   1]+
    |psi|^2 = 0.998
==== e(   8) =     7.91159 eV ==== 
     psi = 0.450*[#   7]+0.450*[#  11]+0.004*[#   6]+0.004*[#  10]+0.003*[#   8]+
          +0.003*[#   9]+0.003*[#  12]+0.003*[#  13]+0.002*[#   4]+0.002*[#   5]+
    |psi|^2 = 0.925
==== e(   9) =     7.91160 eV ==== 
     psi = 0.450*[#   7]+0.450*[#  11]+0.004*[#   6]+0.004*[#  10]+0.003*[#   8]+
          +0.003*[#   9]+0.003*[#  12]+0.003*[#  13]+0.002*[#   4]+0.002*[#   5]+
    |psi|^2 = 0.925
==== e(  10) =    13.56788 eV ==== 
     psi = 0.888*[#   2]+0.017*[#   1]+0.005*[#   8]+0.005*[#   9]+0.005*[#  12]+
          +0.005*[#  13]+
    |psi|^2 = 0.926
==== e(  11) =    19.97542 eV ==== 
     psi = 0.108*[#   6]+0.108*[#  10]+0.056*[#   8]+0.056*[#   9]+0.056*[#  12]+
          +0.056*[#  13]+0.017*[#   7]+0.017*[#  11]+
    |psi|^2 = 0.474
==== e(  12) =    19.97544 eV ==== 
     psi = 0.108*[#   6]+0.108*[#  10]+0.056*[#   8]+0.056*[#   9]+0.056*[#  12]+
          +0.056*[#  13]+0.017*[#   7]+0.017*[#  11]+
    |psi|^2 = 0.474
==== e(  13) =    20.75539 eV ==== 
     psi = 0.034*[#   2]+
    |psi|^2 = 0.037
==== e(  14) =    22.44662 eV ==== 
     psi = 0.126*[#   6]+0.126*[#  10]+0.056*[#   8]+0.056*[#   9]+0.056*[#  12]+
          +0.056*[#  13]+0.014*[#   7]+0.014*[#  11]+
    |psi|^2 = 0.503
==== e(  15) =    22.44663 eV ==== 
     psi = 0.126*[#   6]+0.126*[#  10]+0.056*[#   8]+0.056*[#   9]+0.056*[#  12]+
          +0.056*[#  13]+0.014*[#   7]+0.014*[#  11]+
    |psi|^2 = 0.503
==== e(  16) =    27.06857 eV ==== 
     psi = 0.009*[#   2]+
    |psi|^2 = 0.010

 k =   0.3333333333  0.5773502692  0.3262077271
==== e(   1) =   -65.97727 eV ==== 
     psi = 0.980*[#   1]+0.015*[#   2]+0.001*[#   8]+0.001*[#   9]+0.001*[#  12]+
          +0.001*[#  13]+
    |psi|^2 = 1.000
==== e(   2) =   -32.75355 eV ==== 
     psi = 0.498*[#   4]+0.498*[#   5]+0.002*[#   7]+0.002*[#  11]+
    |psi|^2 = 1.000
==== e(   3) =   -32.75355 eV ==== 
     psi = 0.498*[#   4]+0.498*[#   5]+0.002*[#   7]+0.002*[#  11]+
    |psi|^2 = 1.000
==== e(   4) =   -32.71169 eV ==== 
     psi = 0.994*[#   3]+0.001*[#   8]+0.001*[#   9]+0.001*[#  12]+0.001*[#  13]+
    |psi|^2 = 1.000
==== e(   5) =     2.59030 eV ==== 
     psi = 0.240*[#   6]+0.240*[#  10]+0.126*[#   8]+0.126*[#   9]+0.126*[#  12]+
          +0.126*[#  13]+0.007*[#   7]+0.007*[#  11]+
    |psi|^2 = 0.997
==== e(   6) =     2.59032 eV ==== 
     psi = 0.240*[#   6]+0.240*[#  10]+0.126*[#   8]+0.126*[#   9]+0.126*[#  12]+
          +0.126*[#  13]+0.007*[#   7]+0.007*[#  11]+
    |psi|^2 = 0.997
==== e(   7) =     3.80597 eV ==== 
     psi = 0.243*[#   8]+0.243*[#   9]+0.243*[#  12]+0.243*[#  13]+0.017*[#   2]+
          +0.006*[#   3]+0.003*[#   1]+
    |psi|^2 = 0.998
==== e(   8) =     7.59715 eV ==== 
     psi = 0.454*[#   7]+0.454*[#  11]+0.003*[#   6]+0.003*[#  10]+0.002*[#   8]+
          +0.002*[#   9]+0.002*[#  12]+0.002*[#  13]+0.002*[#   4]+0.002*[#   5]+
    |psi|^2 = 0.928
==== e(   9) =     7.59716 eV ==== 
     psi = 0.454*[#   7]+0.454*[#  11]+0.003*[#   6]+0.003*[#  10]+0.002*[#   8]+
          +0.002*[#   9]+0.002*[#  12]+0.002*[#  13]+0.002*[#   4]+0.002*[#   5]+
    |psi|^2 = 0.928
==== e(  10) =    13.24732 eV ==== 
     psi = 0.916*[#   2]+0.016*[#   1]+0.003*[#   8]+0.003*[#   9]+0.003*[#  12]+
          +0.003*[#  13]+
    |psi|^2 = 0.945
==== e(  11) =    20.54145 eV ==== 
     psi = 0.149*[#   6]+0.149*[#  10]+0.076*[#   8]+0.076*[#   9]+0.076*[#  12]+
          +0.076*[#  13]+0.011*[#   7]+0.011*[#  11]+
    |psi|^2 = 0.624
==== e(  12) =    20.54146 eV ==== 
     psi = 0.149*[#   6]+0.149*[#  10]+0.076*[#   8]+0.076*[#   9]+0.076*[#  12]+
          +0.076*[#  13]+0.011*[#   7]+0.011*[#  11]+
    |psi|^2 = 0.624
==== e(  13) =    20.83863 eV ==== 
     psi = 0.019*[#   2]+
    |psi|^2 = 0.021
==== e(  14) =    22.64413 eV ==== 
     psi = 0.084*[#   6]+0.084*[#  10]+0.038*[#   8]+0.038*[#   9]+0.038*[#  12]+
          +0.038*[#  13]+0.020*[#   7]+0.020*[#  11]+
    |psi|^2 = 0.357
==== e(  15) =    22.64414 eV ==== 
     psi = 0.084*[#   6]+0.084*[#  10]+0.038*[#   8]+0.038*[#   9]+0.038*[#  12]+
          +0.038*[#  13]+0.020*[#   7]+0.020*[#  11]+
    |psi|^2 = 0.357
==== e(  16) =    27.98025 eV ==== 
     psi = 0.005*[#   2]+
    |psi|^2 = 0.005

 k =   0.3333333333  0.5773502692  0.3624530301
==== e(   1) =   -65.97727 eV ==== 
     psi = 0.983*[#   1]+0.014*[#   2]+
    |psi|^2 = 1.000
==== e(   2) =   -32.75350 eV ==== 
     psi = 0.497*[#   4]+0.497*[#   5]+0.002*[#   7]+0.002*[#  11]+
    |psi|^2 = 1.000
==== e(   3) =   -32.75350 eV ==== 
     psi = 0.497*[#   4]+0.497*[#   5]+0.002*[#   7]+0.002*[#  11]+
    |psi|^2 = 1.000
==== e(   4) =   -32.71232 eV ==== 
     psi = 0.993*[#   3]+0.002*[#   8]+0.002*[#   9]+0.002*[#  12]+0.002*[#  13]+
    |psi|^2 = 1.000
==== e(   5) =     2.67980 eV ==== 
     psi = 0.242*[#   6]+0.242*[#  10]+0.126*[#   8]+0.126*[#   9]+0.126*[#  12]+
          +0.126*[#  13]+0.004*[#   7]+0.004*[#  11]+
    |psi|^2 = 0.997
==== e(   6) =     2.67982 eV ==== 
     psi = 0.242*[#   6]+0.242*[#  10]+0.126*[#   8]+0.126*[#   9]+0.126*[#  12]+
          +0.126*[#  13]+0.004*[#   7]+0.004*[#  11]+
    |psi|^2 = 0.997
==== e(   7) =     3.86513 eV ==== 
     psi = 0.246*[#   8]+0.246*[#   9]+0.246*[#  12]+0.246*[#  13]+0.008*[#   2]+
          +0.006*[#   3]+0.001*[#   1]+
    |psi|^2 = 0.998
==== e(   8) =     7.35841 eV ==== 
     psi = 0.459*[#   7]+0.459*[#  11]+0.002*[#   4]+0.002*[#   5]+0.002*[#   6]+
          +0.002*[#  10]+0.001*[#   8]+0.001*[#   9]+0.001*[#  12]+0.001*[#  13]+
    |psi|^2 = 0.930
==== e(   9) =     7.35842 eV ==== 
     psi = 0.459*[#   7]+0.459*[#  11]+0.002*[#   4]+0.002*[#   5]+0.002*[#   6]+
          +0.002*[#  10]+0.001*[#   8]+0.001*[#   9]+0.001*[#  12]+0.001*[#  13]+
    |psi|^2 = 0.930
==== e(  10) =    13.01176 eV ==== 
     psi = 0.937*[#   2]+0.015*[#   1]+0.002*[#   8]+0.002*[#   9]+0.002*[#  12]+
          +0.002*[#  13]+
    |psi|^2 = 0.958
==== e(  11) =    20.89836 eV ==== 
     psi = 0.008*[#   2]+
    |psi|^2 = 0.009
==== e(  12) =    20.94973 eV ==== 
     psi = 0.192*[#   6]+0.192*[#  10]+0.096*[#   8]+0.096*[#   9]+0.096*[#  12]+
          +0.096*[#  13]+0.005*[#   7]+0.005*[#  11]+
    |psi|^2 = 0.780
==== e(  13) =    20.94975 eV ==== 
     psi = 0.192*[#   6]+0.192*[#  10]+0.096*[#   8]+0.096*[#   9]+0.096*[#  12]+
          +0.096*[#  13]+0.005*[#   7]+0.005*[#  11]+
    |psi|^2 = 0.780
==== e(  14) =    22.86960 eV ==== 
     psi = 0.040*[#   6]+0.040*[#  10]+0.026*[#   7]+0.026*[#  11]+0.018*[#   8]+
          +0.018*[#   9]+0.018*[#  12]+0.018*[#  13]+
    |psi|^2 = 0.205
==== e(  15) =    22.86960 eV ==== 
     psi = 0.040*[#   6]+0.040*[#  10]+0.026*[#   7]+0.026*[#  11]+0.018*[#   8]+
          +0.018*[#   9]+0.018*[#  12]+0.018*[#  13]+
    |psi|^2 = 0.205
==== e(  16) =    28.83017 eV ==== 
     psi = 0.248*[#   8]+0.248*[#   9]+0.248*[#  12]+0.248*[#  13]+
    |psi|^2 = 0.992

 k =   0.3333333333  0.5773502692  0.3986983331
==== e(   1) =   -65.97722 eV ==== 
     psi = 0.985*[#   1]+0.014*[#   2]+
    |psi|^2 = 1.000
==== e(   2) =   -32.75340 eV ==== 
     psi = 0.497*[#   4]+0.497*[#   5]+0.002*[#   7]+0.002*[#  11]+
    |psi|^2 = 1.000
==== e(   3) =   -32.75340 eV ==== 
     psi = 0.497*[#   4]+0.497*[#   5]+0.002*[#   7]+0.002*[#  11]+
    |psi|^2 = 1.000
==== e(   4) =   -32.71260 eV ==== 
     psi = 0.993*[#   3]+0.002*[#   8]+0.002*[#   9]+0.002*[#  12]+0.002*[#  13]+
    |psi|^2 = 1.000
==== e(   5) =     2.73958 eV ==== 
     psi = 0.244*[#   6]+0.244*[#  10]+0.127*[#   8]+0.127*[#   9]+0.127*[#  12]+
          +0.127*[#  13]+0.001*[#   7]+0.001*[#  11]+
    |psi|^2 = 0.998
==== e(   6) =     2.73960 eV ==== 
     psi = 0.244*[#   6]+0.244*[#  10]+0.127*[#   8]+0.127*[#   9]+0.127*[#  12]+
          +0.127*[#  13]+0.001*[#   7]+0.001*[#  11]+
    |psi|^2 = 0.998
==== e(   7) =     3.90322 eV ==== 
     psi = 0.247*[#   8]+0.247*[#   9]+0.247*[#  12]+0.247*[#  13]+0.007*[#   3]+
          +0.002*[#   2]+
    |psi|^2 = 0.998
==== e(   8) =     7.20858 eV ==== 
     psi = 0.462*[#   7]+0.462*[#  11]+0.002*[#   4]+0.002*[#   5]+
    |psi|^2 = 0.931
==== e(   9) =     7.20859 eV ==== 
     psi = 0.462*[#   7]+0.462*[#  11]+0.002*[#   4]+0.002*[#   5]+
    |psi|^2 = 0.931
==== e(  10) =    12.86766 eV ==== 
     psi = 0.950*[#   2]+0.014*[#   1]+
    |psi|^2 = 0.966
==== e(  11) =    20.93503 eV ==== 
     psi = 0.002*[#   2]+
    |psi|^2 = 0.003
==== e(  12) =    21.18379 eV ==== 
     psi = 0.222*[#   6]+0.222*[#  10]+0.110*[#   8]+0.110*[#   9]+0.110*[#  12]+
          +0.110*[#  13]+0.001*[#   7]+0.001*[#  11]+
    |psi|^2 = 0.888
==== e(  13) =    21.18380 eV ==== 
     psi = 0.222*[#   6]+0.222*[#  10]+0.110*[#   8]+0.110*[#   9]+0.110*[#  12]+
          +0.110*[#  13]+0.001*[#   7]+0.001*[#  11]+
    |psi|^2 = 0.888
==== e(  14) =    23.06517 eV ==== 
     psi = 0.031*[#   7]+0.031*[#  11]+0.010*[#   6]+0.010*[#  10]+0.005*[#   8]+
          +0.005*[#   9]+0.005*[#  12]+0.005*[#  13]+
    |psi|^2 = 0.100
==== e(  15) =    23.06517 eV ==== 
     psi = 0.031*[#   7]+0.031*[#  11]+0.010*[#   6]+0.010*[#  10]+0.005*[#   8]+
          +0.005*[#   9]+0.005*[#  12]+0.005*[#  13]+
    |psi|^2 = 0.100
==== e(  16) =    28.83436 eV ==== 
     psi = 0.248*[#   8]+0.248*[#   9]+0.248*[#  12]+0.248*[#  13]+
    |psi|^2 = 0.992

 k =   0.3333333333  0.5773502692 -0.4349436361
==== e(   1) =   -65.97723 eV ==== 
     psi = 0.986*[#   1]+0.014*[#   2]+
    |psi|^2 = 1.000
==== e(   2) =   -32.75341 eV ==== 
     psi = 0.497*[#   4]+0.497*[#   5]+0.003*[#   7]+0.003*[#  11]+
    |psi|^2 = 1.000
==== e(   3) =   -32.75341 eV ==== 
     psi = 0.497*[#   4]+0.497*[#   5]+0.003*[#   7]+0.003*[#  11]+
    |psi|^2 = 1.000
==== e(   4) =   -32.71271 eV ==== 
     psi = 0.993*[#   3]+0.002*[#   8]+0.002*[#   9]+0.002*[#  12]+0.002*[#  13]+
    |psi|^2 = 1.000
==== e(   5) =     2.76066 eV ==== 
     psi = 0.245*[#   6]+0.245*[#  10]+0.127*[#   8]+0.127*[#   9]+0.127*[#  12]+
          +0.127*[#  13]+
    |psi|^2 = 0.998
==== e(   6) =     2.76068 eV ==== 
     psi = 0.245*[#   6]+0.245*[#  10]+0.127*[#   8]+0.127*[#   9]+0.127*[#  12]+
          +0.127*[#  13]+
    |psi|^2 = 0.998
==== e(   7) =     3.91635 eV ==== 
     psi = 0.248*[#   8]+0.248*[#   9]+0.248*[#  12]+0.248*[#  13]+0.007*[#   3]+
    |psi|^2 = 0.998
==== e(   8) =     7.15730 eV ==== 
     psi = 0.463*[#   7]+0.463*[#  11]+0.002*[#   4]+0.002*[#   5]+
    |psi|^2 = 0.931
==== e(   9) =     7.15731 eV ==== 
     psi = 0.463*[#   7]+0.463*[#  11]+0.002*[#   4]+0.002*[#   5]+
    |psi|^2 = 0.931
==== e(  10) =    12.81912 eV ==== 
     psi = 0.955*[#   2]+0.014*[#   1]+
    |psi|^2 = 0.968
==== e(  11) =    20.94738 eV ==== 
     psi = 
    |psi|^2 = 0.001
==== e(  12) =    21.25818 eV ==== 
     psi = 0.232*[#   6]+0.232*[#  10]+0.115*[#   8]+0.115*[#   9]+0.115*[#  12]+
          +0.115*[#  13]+
    |psi|^2 = 0.925
==== e(  13) =    21.25819 eV ==== 
     psi = 0.232*[#   6]+0.232*[#  10]+0.115*[#   8]+0.115*[#   9]+0.115*[#  12]+
          +0.115*[#  13]+
    |psi|^2 = 0.925
==== e(  14) =    23.14416 eV ==== 
     psi = 0.032*[#   7]+0.032*[#  11]+
    |psi|^2 = 0.065
==== e(  15) =    23.14417 eV ==== 
     psi = 0.032*[#   7]+0.032*[#  11]+
    |psi|^2 = 0.065
==== e(  16) =    28.83578 eV ==== 
     psi = 0.248*[#   8]+0.248*[#   9]+0.248*[#  12]+0.248*[#  13]+
    |psi|^2 = 0.992

Lowdin Charges: 

     Atom #   1: total charge =   8.3547, s =  2.3570, 
     Atom #   1: total charge =   8.3547, p =  5.9977, pz=  1.9991, px=  1.9993, py=  1.9993, 
     Atom #   2: total charge =   3.7789, s =  0.8744, 
     Atom #   2: total charge =   3.7789, p =  2.9045, pz=  0.9404, px=  0.9821, py=  0.9821, 
     Atom #   3: total charge =   3.7789, s =  0.8744, 
     Atom #   3: total charge =   3.7789, p =  2.9045, pz=  0.9404, px=  0.9821, py=  0.9821, 
     Spilling Parameter:   0.0055

     PROJWFC      :     9.42s CPU        13.78s WALL


   This run was terminated on:  22: 2:56  22Jul2025            

=------------------------------------------------------------------------------=
   JOB DONE.
=------------------------------------------------------------------------------=
